REMARK FAKE_HEAD_ATOM=C7_N1
REMARK REAL_HEAD_ATOM=C6_C5
REMARK DUMMY_ATOM=C7_H7_H8_H9_N1_H6
REMARK TORSION=C8_C9_O2_C10
REMARK TORSION=C9_O2_C10_C11
MODEL 0
HETATM    1  C1  UNL     1       1.543  -3.300  -0.077  1.00  0.00    -0.049 C 
HETATM    2  C2  UNL     1       0.449  -2.269  -0.055  1.00  0.00    -0.028 A 
HETATM    3  C3  UNL     1      -0.865  -2.630  -0.387  1.00  0.00    -0.074 A 
HETATM    4  C4  UNL     1      -1.885  -1.676  -0.383  1.00  0.00    -0.067 A 
HETATM    5  C5  UNL     1      -1.612  -0.342  -0.038  1.00  0.00     0.034 A 
HETATM    6  C6  UNL     1      -2.685   0.682  -0.022  1.00  0.00     0.251 C 
HETATM    7  N1  UNL     1      -4.059   0.316   0.181  1.00  0.00    -0.361 N 
HETATM    8  C7  UNL     1      -5.134   1.293   0.060  1.00  0.00    -0.018 C 
HETATM    9  O1  UNL     1      -2.383   1.897  -0.176  1.00  0.00    -0.268 OA
HETATM   10  C8  UNL     1      -0.291   0.023   0.275  1.00  0.00    -0.035 A 
HETATM   11  C9  UNL     1       0.745  -0.929   0.252  1.00  0.00     0.083 A 
HETATM   12  O2  UNL     1       2.065  -0.575   0.576  1.00  0.00    -0.310 OA
HETATM   13  C10 UNL     1       2.669   0.660   0.295  1.00  0.00     0.078 A 
HETATM   14  C11 UNL     1       3.700   1.110   1.126  1.00  0.00    -0.033 A 
HETATM   15  C12 UNL     1       4.324   2.329   0.854  1.00  0.00     0.004 A 
HETATM   16  N2  UNL     1       3.940   3.067  -0.222  1.00  0.00    -0.273 NA
HETATM   17  C13 UNL     1       2.953   2.647  -1.057  1.00  0.00     0.004 A 
HETATM   18  C14 UNL     1       2.303   1.433  -0.819  1.00  0.00    -0.033 A 
HETATM   19  H1  UNL     1       2.239  -3.084  -0.914  1.00  0.00     0.033 H 
HETATM   20  H2  UNL     1       2.106  -3.274   0.880  1.00  0.00     0.033 H 
HETATM   21  H3  UNL     1       1.135  -4.325  -0.209  1.00  0.00     0.033 H 
HETATM   22  H4  UNL     1      -1.103  -3.651  -0.656  1.00  0.00     0.084 H 
HETATM   23  H5  UNL     1      -2.880  -1.985  -0.671  1.00  0.00     0.085 H 
HETATM   24  H6  UNL     1      -4.309  -0.656   0.470  1.00  0.00     0.162 HD
HETATM   25  H7  UNL     1      -6.111   0.808   0.270  1.00  0.00     0.056 H 
HETATM   26  H8  UNL     1      -5.153   1.705  -0.971  1.00  0.00     0.056 H 
HETATM   27  H9  UNL     1      -4.980   2.117   0.788  1.00  0.00     0.056 H 
HETATM   28  H10 UNL     1      -0.070   1.042   0.564  1.00  0.00     0.089 H 
HETATM   29  H11 UNL     1       4.009   0.522   1.981  1.00  0.00     0.090 H 
HETATM   30  H12 UNL     1       5.116   2.689   1.497  1.00  0.00     0.114 H 
HETATM   31  H13 UNL     1       2.677   3.252  -1.910  1.00  0.00     0.114 H 
HETATM   32  H14 UNL     1       1.539   1.096  -1.507  1.00  0.00     0.090 H 
TER      33      UNL     1 
ENDMDL
