REMARK FAKE_HEAD_ATOM=C2_N1
REMARK REAL_HEAD_ATOM=C1_O1
REMARK DUMMY_ATOM=C2_H2_H3_H4_N1_H1
REMARK TORSION=O1_C1_C3_C4
REMARK TORSION=C5_C6_C7_S1
REMARK TORSION=C6_C7_S1_O2
REMARK TORSION=C7_S1_N2_C8
REMARK TORSION=S1_N2_C8_C9
MODEL 0
HETATM    1  O1  UNL     1      -4.905  -1.377   0.576  1.00  0.00    -0.268 OA
HETATM    2  C1  UNL     1      -4.316  -0.290   0.324  1.00  0.00     0.251 C 
HETATM    3  N1  UNL     1      -5.080   0.923   0.235  1.00  0.00    -0.361 N 
HETATM    4  C2  UNL     1      -6.495   0.960   0.584  1.00  0.00    -0.018 C 
HETATM    5  C3  UNL     1      -2.849  -0.292   0.106  1.00  0.00     0.032 A 
HETATM    6  C4  UNL     1      -2.200  -1.472  -0.297  1.00  0.00    -0.067 A 
HETATM    7  C5  UNL     1      -0.817  -1.490  -0.501  1.00  0.00    -0.075 A 
HETATM    8  C6  UNL     1      -0.057  -0.328  -0.305  1.00  0.00    -0.043 A 
HETATM    9  C7  UNL     1       1.434  -0.355  -0.490  1.00  0.00     0.065 C 
HETATM   10  S1  UNL     1       2.245  -0.769   1.048  1.00  0.00     0.213 S 
HETATM   11  O2  UNL     1       1.978   0.305   2.066  1.00  0.00    -0.211 OA
HETATM   12  N2  UNL     1       3.956  -0.931   0.799  1.00  0.00    -0.215 NA
HETATM   13  C8  UNL     1       4.493   0.351   0.353  1.00  0.00     0.006 A 
HETATM   14  C9  UNL     1       4.711   0.435  -1.147  1.00  0.00    -0.048 A 
HETATM   15  C10 UNL     1       5.896   0.231  -0.218  1.00  0.00    -0.048 A 
HETATM   16  O3  UNL     1       1.704  -2.075   1.558  1.00  0.00    -0.211 OA
HETATM   17  C11 UNL     1      -0.696   0.846   0.121  1.00  0.00    -0.075 A 
HETATM   18  C12 UNL     1      -2.079   0.866   0.324  1.00  0.00    -0.067 A 
HETATM   19  H1  UNL     1      -4.642   1.797  -0.131  1.00  0.00     0.162 HD
HETATM   20  H2  UNL     1      -6.896   1.984   0.431  1.00  0.00     0.056 H 
HETATM   21  H3  UNL     1      -7.062   0.254  -0.059  1.00  0.00     0.056 H 
HETATM   22  H4  UNL     1      -6.626   0.679   1.651  1.00  0.00     0.056 H 
HETATM   23  H5  UNL     1      -2.763  -2.382  -0.464  1.00  0.00     0.085 H 
HETATM   24  H6  UNL     1      -0.339  -2.411  -0.809  1.00  0.00     0.084 H 
HETATM   25  H7  UNL     1       1.715  -1.104  -1.260  1.00  0.00     0.065 H 
HETATM   26  H8  UNL     1       1.793   0.636  -0.838  1.00  0.00     0.065 H 
HETATM   27  H9  UNL     1       4.377  -1.134   1.734  1.00  0.00     0.140 HD
HETATM   28  H10 UNL     1       4.279   1.279   0.928  1.00  0.00     0.065 H 
HETATM   29  H11 UNL     1       4.418  -0.471  -1.721  1.00  0.00     0.035 H 
HETATM   30  H12 UNL     1       4.625   1.462  -1.560  1.00  0.00     0.035 H 
HETATM   31  H13 UNL     1       6.319  -0.797  -0.246  1.00  0.00     0.035 H 
HETATM   32  H14 UNL     1       6.526   1.135  -0.087  1.00  0.00     0.035 H 
HETATM   33  H15 UNL     1      -0.120   1.745   0.304  1.00  0.00     0.084 H 
HETATM   34  H16 UNL     1      -2.534   1.781   0.678  1.00  0.00     0.085 H 
TER      35      UNL     1 
ENDMDL
