REMARK FAKE_HEAD_ATOM=C15_N2
REMARK REAL_HEAD_ATOM=C14_C13
REMARK DUMMY_ATOM=C15_H14_H15_H16_N2_H13
REMARK TORSION=C13_C8_N1_S1
REMARK TORSION=C8_N1_S1_C2
REMARK TORSION=N1_S1_C2_C3
MODEL 0
HETATM    1  C1  UNL     1      -0.027  -0.977   2.021  1.00  0.00    -0.003 C 
HETATM    2  N1  UNL     1      -0.038  -1.304   0.597  1.00  0.00    -0.275 N 
HETATM    3  S1  UNL     1      -1.535  -1.703  -0.189  1.00  0.00     0.265 S 
HETATM    4  C2  UNL     1      -2.602  -0.302  -0.174  1.00  0.00     0.080 A 
HETATM    5  C3  UNL     1      -2.532   0.647  -1.204  1.00  0.00    -0.060 A 
HETATM    6  C4  UNL     1      -3.366   1.770  -1.182  1.00  0.00    -0.082 A 
HETATM    7  C5  UNL     1      -4.271   1.950  -0.132  1.00  0.00    -0.083 A 
HETATM    8  C6  UNL     1      -4.342   1.007   0.898  1.00  0.00    -0.082 A 
HETATM    9  C7  UNL     1      -3.509  -0.116   0.879  1.00  0.00    -0.060 A 
HETATM   10  O1  UNL     1      -2.184  -2.858   0.521  1.00  0.00    -0.200 OA
HETATM   11  O2  UNL     1      -1.276  -2.107  -1.614  1.00  0.00    -0.200 OA
HETATM   12  C8  UNL     1       1.204  -1.499  -0.095  1.00  0.00     0.060 A 
HETATM   13  C9  UNL     1       1.603  -2.806  -0.415  1.00  0.00    -0.055 A 
HETATM   14  C10 UNL     1       2.827  -3.040  -1.042  1.00  0.00    -0.081 A 
HETATM   15  C11 UNL     1       3.666  -1.971  -1.356  1.00  0.00    -0.082 A 
HETATM   16  C12 UNL     1       3.281  -0.664  -1.048  1.00  0.00    -0.065 A 
HETATM   17  C13 UNL     1       2.050  -0.408  -0.416  1.00  0.00     0.059 A 
HETATM   18  C14 UNL     1       1.648   0.993  -0.148  1.00  0.00     0.253 C 
HETATM   19  N2  UNL     1       2.623   1.974   0.235  1.00  0.00    -0.361 N 
HETATM   20  C15 UNL     1       2.265   3.375   0.421  1.00  0.00    -0.018 C 
HETATM   21  O3  UNL     1       0.438   1.329  -0.262  1.00  0.00    -0.268 OA
HETATM   22  H1  UNL     1       0.572  -1.730   2.574  1.00  0.00     0.058 H 
HETATM   23  H2  UNL     1       0.415   0.028   2.180  1.00  0.00     0.058 H 
HETATM   24  H3  UNL     1      -1.057  -0.976   2.433  1.00  0.00     0.058 H 
HETATM   25  H4  UNL     1      -1.830   0.522  -2.018  1.00  0.00     0.085 H 
HETATM   26  H5  UNL     1      -3.308   2.501  -1.978  1.00  0.00     0.083 H 
HETATM   27  H6  UNL     1      -4.915   2.819  -0.116  1.00  0.00     0.083 H 
HETATM   28  H7  UNL     1      -5.042   1.148   1.712  1.00  0.00     0.083 H 
HETATM   29  H8  UNL     1      -3.571  -0.836   1.685  1.00  0.00     0.085 H 
HETATM   30  H9  UNL     1       0.966  -3.644  -0.164  1.00  0.00     0.087 H 
HETATM   31  H10 UNL     1       3.127  -4.051  -1.283  1.00  0.00     0.083 H 
HETATM   32  H11 UNL     1       4.613  -2.154  -1.847  1.00  0.00     0.083 H 
HETATM   33  H12 UNL     1       3.938   0.149  -1.331  1.00  0.00     0.085 H 
HETATM   34  H13 UNL     1       3.608   1.683   0.427  1.00  0.00     0.162 HD
HETATM   35  H14 UNL     1       3.160   3.955   0.731  1.00  0.00     0.056 H 
HETATM   36  H15 UNL     1       1.878   3.793  -0.532  1.00  0.00     0.056 H 
HETATM   37  H16 UNL     1       1.489   3.464   1.209  1.00  0.00     0.056 H 
TER      38      UNL     1 
ENDMDL
