REMARK FAKE_HEAD_ATOM=C13_N2
REMARK REAL_HEAD_ATOM=C12_C11
REMARK DUMMY_ATOM=C13_H11_H12_H13_N2_H10
REMARK TORSION=C8_C7_N1_S1
REMARK TORSION=C7_N1_S1_C1
REMARK TORSION=N1_S1_C1_C2
MODEL 0
HETATM    1  O1  UNL     1      -2.397  -2.278  -2.566  1.00  0.00    -0.200 OA
HETATM    2  S1  UNL     1      -1.963  -0.941  -2.035  1.00  0.00     0.263 S 
HETATM    3  C1  UNL     1      -2.962  -0.534  -0.643  1.00  0.00     0.079 A 
HETATM    4  C2  UNL     1      -4.072   0.310  -0.788  1.00  0.00    -0.060 A 
HETATM    5  C3  UNL     1      -4.855   0.636   0.325  1.00  0.00    -0.082 A 
HETATM    6  C4  UNL     1      -4.534   0.118   1.583  1.00  0.00    -0.083 A 
HETATM    7  C5  UNL     1      -3.431  -0.728   1.730  1.00  0.00    -0.082 A 
HETATM    8  C6  UNL     1      -2.647  -1.056   0.620  1.00  0.00    -0.060 A 
HETATM    9  N1  UNL     1      -0.294  -1.026  -1.566  1.00  0.00    -0.281 N 
HETATM   10  C7  UNL     1       0.405   0.032  -0.884  1.00  0.00     0.043 A 
HETATM   11  C8  UNL     1      -0.149   1.317  -0.741  1.00  0.00    -0.057 A 
HETATM   12  C9  UNL     1       0.560   2.321  -0.080  1.00  0.00    -0.080 A 
HETATM   13  C10 UNL     1       1.825   2.059   0.446  1.00  0.00    -0.068 A 
HETATM   14  C11 UNL     1       2.398   0.782   0.323  1.00  0.00     0.034 A 
HETATM   15  C12 UNL     1       3.746   0.518   0.882  1.00  0.00     0.251 C 
HETATM   16  N2  UNL     1       4.150  -0.808   1.255  1.00  0.00    -0.361 N 
HETATM   17  C13 UNL     1       5.517  -1.101   1.670  1.00  0.00    -0.018 C 
HETATM   18  O2  UNL     1       4.545   1.480   1.048  1.00  0.00    -0.268 OA
HETATM   19  C14 UNL     1       1.682  -0.222  -0.357  1.00  0.00    -0.041 A 
HETATM   20  O3  UNL     1      -2.117   0.089  -3.120  1.00  0.00    -0.200 OA
HETATM   21  H1  UNL     1      -4.332   0.717  -1.757  1.00  0.00     0.085 H 
HETATM   22  H2  UNL     1      -5.711   1.290   0.211  1.00  0.00     0.083 H 
HETATM   23  H3  UNL     1      -5.141   0.372   2.443  1.00  0.00     0.083 H 
HETATM   24  H4  UNL     1      -3.184  -1.129   2.704  1.00  0.00     0.083 H 
HETATM   25  H5  UNL     1      -1.795  -1.712   0.745  1.00  0.00     0.085 H 
HETATM   26  H6  UNL     1       0.195  -1.934  -1.729  1.00  0.00     0.179 HD
HETATM   27  H7  UNL     1      -1.122   1.558  -1.144  1.00  0.00     0.086 H 
HETATM   28  H8  UNL     1       0.127   3.308   0.023  1.00  0.00     0.083 H 
HETATM   29  H9  UNL     1       2.353   2.853   0.959  1.00  0.00     0.085 H 
HETATM   30  H10 UNL     1       3.452  -1.584   1.281  1.00  0.00     0.162 HD
HETATM   31  H11 UNL     1       5.778  -0.494   2.563  1.00  0.00     0.056 H 
HETATM   32  H12 UNL     1       6.219  -0.867   0.843  1.00  0.00     0.056 H 
HETATM   33  H13 UNL     1       5.611  -2.177   1.928  1.00  0.00     0.056 H 
HETATM   34  H14 UNL     1       2.118  -1.202  -0.499  1.00  0.00     0.088 H 
TER      35      UNL     1 
ENDMDL
