REMARK FAKE_HEAD_ATOM=C12_N2
REMARK REAL_HEAD_ATOM=C11_C10
REMARK DUMMY_ATOM=C12_H10_H11_H12_N2_H9
REMARK TORSION=C8_C7_N1_S1
REMARK TORSION=C7_N1_S1_C1
REMARK TORSION=N1_S1_C1_C2
MODEL 0
HETATM    1  O1  UNL     1       3.352   2.719   2.159  1.00  0.00    -0.200 OA
HETATM    2  S1  UNL     1       2.373   1.600   1.946  1.00  0.00     0.263 S 
HETATM    3  C1  UNL     1       3.135   0.364   0.949  1.00  0.00     0.079 A 
HETATM    4  C2  UNL     1       3.156   0.504  -0.446  1.00  0.00    -0.060 A 
HETATM    5  C3  UNL     1       3.751  -0.480  -1.241  1.00  0.00    -0.082 A 
HETATM    6  C4  UNL     1       4.330  -1.605  -0.648  1.00  0.00    -0.083 A 
HETATM    7  C5  UNL     1       4.316  -1.747   0.743  1.00  0.00    -0.082 A 
HETATM    8  C6  UNL     1       3.721  -0.764   1.541  1.00  0.00    -0.060 A 
HETATM    9  N1  UNL     1       0.960   2.219   1.149  1.00  0.00    -0.281 N 
HETATM   10  C7  UNL     1      -0.124   1.397   0.678  1.00  0.00     0.042 A 
HETATM   11  C8  UNL     1      -0.219   0.032   1.002  1.00  0.00    -0.056 A 
HETATM   12  C9  UNL     1      -1.282  -0.738   0.520  1.00  0.00    -0.066 A 
HETATM   13  C10 UNL     1      -2.279  -0.160  -0.284  1.00  0.00     0.032 A 
HETATM   14  C11 UNL     1      -3.396  -0.992  -0.792  1.00  0.00     0.251 C 
HETATM   15  N2  UNL     1      -4.655  -0.406  -1.158  1.00  0.00    -0.361 N 
HETATM   16  C12 UNL     1      -5.708  -1.192  -1.789  1.00  0.00    -0.018 C 
HETATM   17  O2  UNL     1      -3.242  -2.241  -0.889  1.00  0.00    -0.268 OA
HETATM   18  C13 UNL     1      -2.179   1.204  -0.610  1.00  0.00    -0.066 A 
HETATM   19  C14 UNL     1      -1.115   1.972  -0.129  1.00  0.00    -0.056 A 
HETATM   20  O3  UNL     1       1.976   1.036   3.282  1.00  0.00    -0.200 OA
HETATM   21  H1  UNL     1       2.711   1.372  -0.916  1.00  0.00     0.085 H 
HETATM   22  H2  UNL     1       3.763  -0.370  -2.318  1.00  0.00     0.083 H 
HETATM   23  H3  UNL     1       4.790  -2.366  -1.265  1.00  0.00     0.083 H 
HETATM   24  H4  UNL     1       4.766  -2.617   1.202  1.00  0.00     0.083 H 
HETATM   25  H5  UNL     1       3.717  -0.885   2.617  1.00  0.00     0.085 H 
HETATM   26  H6  UNL     1       0.943   3.244   0.949  1.00  0.00     0.179 HD
HETATM   27  H7  UNL     1       0.517  -0.449   1.629  1.00  0.00     0.087 H 
HETATM   28  H8  UNL     1      -1.330  -1.786   0.788  1.00  0.00     0.085 H 
HETATM   29  H9  UNL     1      -4.857   0.593  -0.932  1.00  0.00     0.162 HD
HETATM   30  H10 UNL     1      -5.347  -1.594  -2.759  1.00  0.00     0.056 H 
HETATM   31  H11 UNL     1      -6.002  -2.033  -1.125  1.00  0.00     0.056 H 
HETATM   32  H12 UNL     1      -6.598  -0.554  -1.973  1.00  0.00     0.056 H 
HETATM   33  H13 UNL     1      -2.905   1.678  -1.257  1.00  0.00     0.085 H 
HETATM   34  H14 UNL     1      -1.058   3.020  -0.398  1.00  0.00     0.087 H 
TER      35      UNL     1 
ENDMDL
