REMARK FAKE_HEAD_ATOM=C13_N1
REMARK REAL_HEAD_ATOM=C12_C11
REMARK DUMMY_ATOM=C13_H11_H12_H13_N1_H10
REMARK TORSION=C9_C8_C7_S1
REMARK TORSION=C8_C7_S1_C1
REMARK TORSION=C7_S1_C1_C2
MODEL 0
HETATM    1  O1  UNL     1       1.520  -2.018  -0.111  1.00  0.00    -0.222 OA
HETATM    2  S1  UNL     1       1.888  -0.605   0.247  1.00  0.00     0.179 S 
HETATM    3  C1  UNL     1       3.633  -0.404   0.146  1.00  0.00     0.059 A 
HETATM    4  C2  UNL     1       4.285   0.527   0.969  1.00  0.00    -0.062 A 
HETATM    5  C3  UNL     1       5.670   0.697   0.877  1.00  0.00    -0.082 A 
HETATM    6  C4  UNL     1       6.408  -0.057  -0.041  1.00  0.00    -0.083 A 
HETATM    7  C5  UNL     1       5.762  -0.979  -0.869  1.00  0.00    -0.082 A 
HETATM    8  C6  UNL     1       4.377  -1.151  -0.779  1.00  0.00    -0.062 A 
HETATM    9  C7  UNL     1       1.104   0.531  -0.884  1.00  0.00     0.057 C 
HETATM   10  C8  UNL     1      -0.390   0.384  -0.823  1.00  0.00    -0.044 A 
HETATM   11  C9  UNL     1      -1.046  -0.538  -1.651  1.00  0.00    -0.075 A 
HETATM   12  C10 UNL     1      -2.432  -0.697  -1.572  1.00  0.00    -0.067 A 
HETATM   13  C11 UNL     1      -3.187   0.052  -0.651  1.00  0.00     0.032 A 
HETATM   14  C12 UNL     1      -4.658  -0.125  -0.582  1.00  0.00     0.251 C 
HETATM   15  N1  UNL     1      -5.390   0.190   0.612  1.00  0.00    -0.361 N 
HETATM   16  C13 UNL     1      -6.847   0.154   0.645  1.00  0.00    -0.018 C 
HETATM   17  O2  UNL     1      -5.274  -0.576  -1.587  1.00  0.00    -0.268 OA
HETATM   18  C14 UNL     1      -2.524   0.977   0.177  1.00  0.00    -0.067 A 
HETATM   19  C15 UNL     1      -1.138   1.135   0.096  1.00  0.00    -0.075 A 
HETATM   20  O3  UNL     1       1.427  -0.327   1.651  1.00  0.00    -0.222 OA
HETATM   21  H1  UNL     1       3.722   1.121   1.678  1.00  0.00     0.085 H 
HETATM   22  H2  UNL     1       6.170   1.414   1.514  1.00  0.00     0.083 H 
HETATM   23  H3  UNL     1       7.480   0.077  -0.112  1.00  0.00     0.083 H 
HETATM   24  H4  UNL     1       6.334  -1.558  -1.582  1.00  0.00     0.083 H 
HETATM   25  H5  UNL     1       3.886  -1.862  -1.431  1.00  0.00     0.085 H 
HETATM   26  H6  UNL     1       1.471   0.327  -1.913  1.00  0.00     0.064 H 
HETATM   27  H7  UNL     1       1.403   1.568  -0.621  1.00  0.00     0.064 H 
HETATM   28  H8  UNL     1      -0.483  -1.137  -2.356  1.00  0.00     0.084 H 
HETATM   29  H9  UNL     1      -2.913  -1.417  -2.222  1.00  0.00     0.085 H 
HETATM   30  H10 UNL     1      -4.884   0.405   1.499  1.00  0.00     0.162 HD
HETATM   31  H11 UNL     1      -7.206  -0.864   0.387  1.00  0.00     0.056 H 
HETATM   32  H12 UNL     1      -7.258   0.888  -0.081  1.00  0.00     0.056 H 
HETATM   33  H13 UNL     1      -7.209   0.414   1.662  1.00  0.00     0.056 H 
HETATM   34  H14 UNL     1      -3.073   1.596   0.873  1.00  0.00     0.085 H 
HETATM   35  H15 UNL     1      -0.647   1.847   0.748  1.00  0.00     0.084 H 
TER      36      UNL     1 
ENDMDL
