REMARK FAKE_HEAD_ATOM=C19_N1
REMARK REAL_HEAD_ATOM=C18_C17
REMARK DUMMY_ATOM=C19_H15_H16_H17_N1_H14
REMARK TORSION=C15_C14_C1_C2
REMARK TORSION=C14_C1_C2_C3
REMARK TORSION=C14_C1_O1_H1
REMARK TORSION=C14_C1_C8_C9
MODEL 0
HETATM    1  O1  UNL     1      -1.219  -0.730  -2.168  1.00  0.00    -0.376 OA
HETATM    2  C1  UNL     1      -1.190  -0.292  -0.826  1.00  0.00     0.140 C 
HETATM    3  C2  UNL     1      -1.790   1.118  -0.750  1.00  0.00    -0.015 A 
HETATM    4  C3  UNL     1      -1.566   1.940   0.377  1.00  0.00    -0.073 A 
HETATM    5  C4  UNL     1      -2.160   3.201   0.470  1.00  0.00    -0.082 A 
HETATM    6  C5  UNL     1      -3.003   3.656  -0.544  1.00  0.00    -0.083 A 
HETATM    7  C6  UNL     1      -3.262   2.846  -1.650  1.00  0.00    -0.082 A 
HETATM    8  C7  UNL     1      -2.671   1.583  -1.751  1.00  0.00    -0.073 A 
HETATM    9  C8  UNL     1      -2.096  -1.182   0.041  1.00  0.00    -0.015 A 
HETATM   10  C9  UNL     1      -1.968  -1.197   1.447  1.00  0.00    -0.073 A 
HETATM   11  C10 UNL     1      -2.835  -1.957   2.236  1.00  0.00    -0.082 A 
HETATM   12  C11 UNL     1      -3.861  -2.692   1.641  1.00  0.00    -0.083 A 
HETATM   13  C12 UNL     1      -4.027  -2.661   0.256  1.00  0.00    -0.082 A 
HETATM   14  C13 UNL     1      -3.162  -1.903  -0.539  1.00  0.00    -0.073 A 
HETATM   15  C14 UNL     1       0.289  -0.321  -0.392  1.00  0.00    -0.015 A 
HETATM   16  C15 UNL     1       1.149   0.755  -0.695  1.00  0.00    -0.072 A 
HETATM   17  C16 UNL     1       2.509   0.701  -0.378  1.00  0.00    -0.067 A 
HETATM   18  C17 UNL     1       3.062  -0.451   0.203  1.00  0.00     0.032 A 
HETATM   19  C18 UNL     1       4.501  -0.523   0.554  1.00  0.00     0.251 C 
HETATM   20  N1  UNL     1       5.474   0.290  -0.121  1.00  0.00    -0.361 N 
HETATM   21  C19 UNL     1       6.865   0.333   0.313  1.00  0.00    -0.018 C 
HETATM   22  O2  UNL     1       4.879  -1.325   1.452  1.00  0.00    -0.268 OA
HETATM   23  C20 UNL     1       2.224  -1.549   0.454  1.00  0.00    -0.067 A 
HETATM   24  C21 UNL     1       0.865  -1.496   0.136  1.00  0.00    -0.072 A 
HETATM   25  H1  UNL     1      -0.875  -1.662  -2.195  1.00  0.00     0.211 HD
HETATM   26  H2  UNL     1      -0.924   1.611   1.182  1.00  0.00     0.084 H 
HETATM   27  H3  UNL     1      -1.969   3.825   1.334  1.00  0.00     0.083 H 
HETATM   28  H4  UNL     1      -3.464   4.632  -0.468  1.00  0.00     0.083 H 
HETATM   29  H5  UNL     1      -3.929   3.194  -2.429  1.00  0.00     0.083 H 
HETATM   30  H6  UNL     1      -2.912   0.972  -2.610  1.00  0.00     0.084 H 
HETATM   31  H7  UNL     1      -1.190  -0.626   1.938  1.00  0.00     0.084 H 
HETATM   32  H8  UNL     1      -2.716  -1.970   3.312  1.00  0.00     0.083 H 
HETATM   33  H9  UNL     1      -4.533  -3.277   2.255  1.00  0.00     0.083 H 
HETATM   34  H10 UNL     1      -4.834  -3.217  -0.202  1.00  0.00     0.083 H 
HETATM   35  H11 UNL     1      -3.336  -1.878  -1.606  1.00  0.00     0.084 H 
HETATM   36  H12 UNL     1       0.772   1.646  -1.179  1.00  0.00     0.084 H 
HETATM   37  H13 UNL     1       3.118   1.572  -0.579  1.00  0.00     0.085 H 
HETATM   38  H14 UNL     1       5.208   0.832  -0.973  1.00  0.00     0.162 HD
HETATM   39  H15 UNL     1       7.447   1.007  -0.351  1.00  0.00     0.056 H 
HETATM   40  H16 UNL     1       7.307  -0.685   0.266  1.00  0.00     0.056 H 
HETATM   41  H17 UNL     1       6.922   0.716   1.353  1.00  0.00     0.056 H 
HETATM   42  H18 UNL     1       2.625  -2.463   0.876  1.00  0.00     0.085 H 
HETATM   43  H19 UNL     1       0.266  -2.383   0.297  1.00  0.00     0.084 H 
TER      44      UNL     1 
ENDMDL
