REMARK FAKE_HEAD_ATOM=C1_N1
REMARK REAL_HEAD_ATOM=C2_C3
REMARK DUMMY_ATOM=C1_H1_H2_H3_N1_H5
REMARK TORSION=C7_C8_P1_C9
REMARK TORSION=C8_P1_C9_C10
REMARK TORSION=C8_P1_C15_C16
MODEL 0
HETATM    1  C1  UNL     1      -4.065  -0.737  -2.222  1.00  0.00    -0.018 C 
HETATM    2  N1  UNL     1      -3.316  -0.458  -1.004  1.00  0.00    -0.361 N 
HETATM    3  C2  UNL     1      -2.978   0.880  -0.616  1.00  0.00     0.252 C 
HETATM    4  C3  UNL     1      -2.110   1.128   0.555  1.00  0.00     0.043 A 
HETATM    5  C4  UNL     1      -2.551   2.041   1.527  1.00  0.00    -0.067 A 
HETATM    6  C5  UNL     1      -1.780   2.300   2.660  1.00  0.00    -0.082 A 
HETATM    7  C6  UNL     1      -0.556   1.659   2.831  1.00  0.00    -0.082 A 
HETATM    8  C7  UNL     1      -0.091   0.766   1.864  1.00  0.00    -0.071 A 
HETATM    9  C8  UNL     1      -0.856   0.485   0.715  1.00  0.00    -0.006 A 
HETATM   10  P1  UNL     1      -0.173  -0.583  -0.655  1.00  0.00    -0.015 P 
HETATM   11  C9  UNL     1       1.117   0.635  -1.198  1.00  0.00    -0.022 A 
HETATM   12  C10 UNL     1       0.877   1.357  -2.376  1.00  0.00    -0.072 A 
HETATM   13  C11 UNL     1       1.791   2.318  -2.818  1.00  0.00    -0.082 A 
HETATM   14  C12 UNL     1       2.950   2.572  -2.081  1.00  0.00    -0.083 A 
HETATM   15  C13 UNL     1       3.194   1.868  -0.900  1.00  0.00    -0.082 A 
HETATM   16  C14 UNL     1       2.281   0.906  -0.455  1.00  0.00    -0.072 A 
HETATM   17  C15 UNL     1       0.847  -1.798   0.307  1.00  0.00    -0.022 A 
HETATM   18  C16 UNL     1       0.331  -2.386   1.474  1.00  0.00    -0.072 A 
HETATM   19  C17 UNL     1       1.061  -3.366   2.153  1.00  0.00    -0.082 A 
HETATM   20  C18 UNL     1       2.292  -3.795   1.651  1.00  0.00    -0.083 A 
HETATM   21  C19 UNL     1       2.784  -3.259   0.459  1.00  0.00    -0.082 A 
HETATM   22  C20 UNL     1       2.055  -2.279  -0.222  1.00  0.00    -0.072 A 
HETATM   23  O1  UNL     1      -3.460   1.860  -1.247  1.00  0.00    -0.268 OA
HETATM   24  H1  UNL     1      -4.215  -1.832  -2.330  1.00  0.00     0.056 H 
HETATM   25  H2  UNL     1      -3.502  -0.363  -3.103  1.00  0.00     0.056 H 
HETATM   26  H3  UNL     1      -5.058  -0.241  -2.176  1.00  0.00     0.056 H 
HETATM   27  H4  UNL     1      -3.035  -1.259  -0.393  1.00  0.00     0.162 HD
HETATM   28  H5  UNL     1      -3.504   2.544   1.415  1.00  0.00     0.085 H 
HETATM   29  H6  UNL     1      -2.134   2.998   3.408  1.00  0.00     0.083 H 
HETATM   30  H7  UNL     1       0.042   1.863   3.710  1.00  0.00     0.083 H 
HETATM   31  H8  UNL     1       0.869   0.301   2.024  1.00  0.00     0.084 H 
HETATM   32  H9  UNL     1      -0.022   1.176  -2.951  1.00  0.00     0.084 H 
HETATM   33  H10 UNL     1       1.599   2.868  -3.730  1.00  0.00     0.083 H 
HETATM   34  H11 UNL     1       3.656   3.317  -2.423  1.00  0.00     0.083 H 
HETATM   35  H12 UNL     1       4.091   2.067  -0.328  1.00  0.00     0.083 H 
HETATM   36  H13 UNL     1       2.500   0.376   0.460  1.00  0.00     0.084 H 
HETATM   37  H14 UNL     1      -0.636  -2.088   1.857  1.00  0.00     0.084 H 
HETATM   38  H15 UNL     1       0.667  -3.800   3.062  1.00  0.00     0.083 H 
HETATM   39  H16 UNL     1       2.854  -4.557   2.175  1.00  0.00     0.083 H 
HETATM   40  H17 UNL     1       3.725  -3.611   0.055  1.00  0.00     0.083 H 
HETATM   41  H18 UNL     1       2.434  -1.897  -1.162  1.00  0.00     0.084 H 
TER      42      UNL     1 
ENDMDL
