REMARK FAKE_HEAD_ATOM=C1_N1
REMARK REAL_HEAD_ATOM=C2_C3
REMARK DUMMY_ATOM=C1_H1_H2_H3_N1_H4
REMARK TORSION=C5_C6_P1_C7
REMARK TORSION=C6_P1_C7_C8
REMARK TORSION=C6_P1_C13_C14
MODEL 0
HETATM    1  C1  UNL     1       6.739  -0.079  -0.338  1.00  0.00    -0.018 C 
HETATM    2  N1  UNL     1       5.384  -0.028   0.199  1.00  0.00    -0.361 N 
HETATM    3  C2  UNL     1       4.238  -0.282  -0.628  1.00  0.00     0.251 C 
HETATM    4  C3  UNL     1       2.861  -0.089  -0.114  1.00  0.00     0.032 A 
HETATM    5  C4  UNL     1       1.788  -0.783  -0.699  1.00  0.00    -0.067 A 
HETATM    6  C5  UNL     1       0.484  -0.607  -0.229  1.00  0.00    -0.071 A 
HETATM    7  C6  UNL     1       0.226   0.269   0.840  1.00  0.00    -0.022 A 
HETATM    8  P1  UNL     1      -1.482   0.598   1.489  1.00  0.00    -0.016 P 
HETATM    9  C7  UNL     1      -2.294  -1.045   1.196  1.00  0.00    -0.022 A 
HETATM   10  C8  UNL     1      -3.641  -1.108   0.804  1.00  0.00    -0.072 A 
HETATM   11  C9  UNL     1      -4.280  -2.343   0.663  1.00  0.00    -0.082 A 
HETATM   12  C10 UNL     1      -3.591  -3.524   0.952  1.00  0.00    -0.083 A 
HETATM   13  C11 UNL     1      -2.269  -3.469   1.400  1.00  0.00    -0.082 A 
HETATM   14  C12 UNL     1      -1.629  -2.234   1.542  1.00  0.00    -0.072 A 
HETATM   15  C13 UNL     1      -2.054   1.546  -0.001  1.00  0.00    -0.022 A 
HETATM   16  C14 UNL     1      -2.291   0.942  -1.250  1.00  0.00    -0.072 A 
HETATM   17  C15 UNL     1      -2.684   1.718  -2.345  1.00  0.00    -0.082 A 
HETATM   18  C16 UNL     1      -2.835   3.100  -2.207  1.00  0.00    -0.083 A 
HETATM   19  C17 UNL     1      -2.592   3.708  -0.973  1.00  0.00    -0.082 A 
HETATM   20  C18 UNL     1      -2.199   2.935   0.123  1.00  0.00    -0.072 A 
HETATM   21  C19 UNL     1       1.290   0.978   1.409  1.00  0.00    -0.071 A 
HETATM   22  C20 UNL     1       2.595   0.803   0.940  1.00  0.00    -0.067 A 
HETATM   23  O1  UNL     1       4.405  -0.694  -1.809  1.00  0.00    -0.268 OA
HETATM   24  H1  UNL     1       7.473   0.133   0.468  1.00  0.00     0.056 H 
HETATM   25  H2  UNL     1       6.943  -1.089  -0.752  1.00  0.00     0.056 H 
HETATM   26  H3  UNL     1       6.855   0.681  -1.138  1.00  0.00     0.056 H 
HETATM   27  H4  UNL     1       5.268   0.154   1.220  1.00  0.00     0.162 HD
HETATM   28  H5  UNL     1       1.959  -1.474  -1.516  1.00  0.00     0.085 H 
HETATM   29  H6  UNL     1      -0.310  -1.168  -0.695  1.00  0.00     0.084 H 
HETATM   30  H7  UNL     1      -4.198  -0.201   0.608  1.00  0.00     0.084 H 
HETATM   31  H8  UNL     1      -5.312  -2.385   0.341  1.00  0.00     0.083 H 
HETATM   32  H9  UNL     1      -4.087  -4.480   0.847  1.00  0.00     0.083 H 
HETATM   33  H10 UNL     1      -1.744  -4.382   1.650  1.00  0.00     0.083 H 
HETATM   34  H11 UNL     1      -0.615  -2.206   1.922  1.00  0.00     0.084 H 
HETATM   35  H12 UNL     1      -2.189  -0.123  -1.386  1.00  0.00     0.084 H 
HETATM   36  H13 UNL     1      -2.871   1.248  -3.301  1.00  0.00     0.083 H 
HETATM   37  H14 UNL     1      -3.138   3.699  -3.056  1.00  0.00     0.083 H 
HETATM   38  H15 UNL     1      -2.704   4.779  -0.867  1.00  0.00     0.083 H 
HETATM   39  H16 UNL     1      -2.007   3.419   1.072  1.00  0.00     0.084 H 
HETATM   40  H17 UNL     1       1.106   1.677   2.215  1.00  0.00     0.084 H 
HETATM   41  H18 UNL     1       3.385   1.389   1.389  1.00  0.00     0.085 H 
TER      42      UNL     1 
ENDMDL
