REMARK FAKE_HEAD_ATOM=C1_N1
REMARK REAL_HEAD_ATOM=C2_C3
REMARK DUMMY_ATOM=C1_H1_H2_H3_N1_H4
MODEL 0
HETATM    1  C1  UNL     1       3.738  -1.103   0.399  1.00  0.00    -0.018 C 
HETATM    2  N1  UNL     1       2.397  -0.540   0.498  1.00  0.00    -0.361 N 
HETATM    3  C2  UNL     1       1.891   0.379  -0.480  1.00  0.00     0.252 C 
HETATM    4  C3  UNL     1       0.502   0.879  -0.392  1.00  0.00     0.043 A 
HETATM    5  C4  UNL     1       0.303   2.270  -0.402  1.00  0.00    -0.067 A 
HETATM    6  C5  UNL     1      -0.975   2.809  -0.259  1.00  0.00    -0.081 A 
HETATM    7  C6  UNL     1      -2.079   1.972  -0.111  1.00  0.00    -0.072 A 
HETATM    8  C7  UNL     1      -1.917   0.580  -0.126  1.00  0.00    -0.025 A 
HETATM    9  C8  UNL     1      -0.621   0.016  -0.281  1.00  0.00    -0.010 A 
HETATM   10  C9  UNL     1      -0.501  -1.388  -0.357  1.00  0.00    -0.071 A 
HETATM   11  C10 UNL     1      -1.628  -2.206  -0.236  1.00  0.00    -0.082 A 
HETATM   12  C11 UNL     1      -2.890  -1.643  -0.053  1.00  0.00    -0.082 A 
HETATM   13  C12 UNL     1      -3.038  -0.256  -0.003  1.00  0.00    -0.072 A 
HETATM   14  O1  UNL     1       2.647   0.810  -1.392  1.00  0.00    -0.268 OA
HETATM   15  H1  UNL     1       3.835  -1.677  -0.546  1.00  0.00     0.056 H 
HETATM   16  H2  UNL     1       4.492  -0.288   0.419  1.00  0.00     0.056 H 
HETATM   17  H3  UNL     1       3.924  -1.785   1.255  1.00  0.00     0.056 H 
HETATM   18  H4  UNL     1       1.800  -0.805   1.313  1.00  0.00     0.162 HD
HETATM   19  H5  UNL     1       1.147   2.943  -0.495  1.00  0.00     0.085 H 
HETATM   20  H6  UNL     1      -1.109   3.883  -0.256  1.00  0.00     0.083 H 
HETATM   21  H7  UNL     1      -3.062   2.414   0.003  1.00  0.00     0.084 H 
HETATM   22  H8  UNL     1       0.453  -1.867  -0.529  1.00  0.00     0.084 H 
HETATM   23  H9  UNL     1      -1.522  -3.282  -0.292  1.00  0.00     0.083 H 
HETATM   24  H10 UNL     1      -3.758  -2.282   0.039  1.00  0.00     0.083 H 
HETATM   25  H11 UNL     1      -4.029   0.163   0.123  1.00  0.00     0.084 H 
TER      26      UNL     1 
ENDMDL
