REMARK FAKE_HEAD_ATOM=C14_N2
REMARK REAL_HEAD_ATOM=C1_C2
REMARK DUMMY_ATOM=C14_H12_H13_H14_N2_H11
REMARK TORSION=C4_C5_C8_S1
REMARK TORSION=C5_C8_S1_C9
REMARK TORSION=C8_S1_C9_N1
MODEL 0
HETATM    1  O1  UNL     1       4.853   0.600   1.660  1.00  0.00    -0.268 OA
HETATM    2  C1  UNL     1       4.353   0.161   0.588  1.00  0.00     0.251 C 
HETATM    3  C2  UNL     1       2.880   0.019   0.478  1.00  0.00     0.032 A 
HETATM    4  C3  UNL     1       2.238   0.034  -0.774  1.00  0.00    -0.067 A 
HETATM    5  C4  UNL     1       0.849  -0.094  -0.860  1.00  0.00    -0.075 A 
HETATM    6  C5  UNL     1       0.077  -0.244   0.301  1.00  0.00    -0.049 A 
HETATM    7  C6  UNL     1       0.709  -0.233   1.552  1.00  0.00    -0.075 A 
HETATM    8  C7  UNL     1       2.098  -0.104   1.640  1.00  0.00    -0.067 A 
HETATM    9  C8  UNL     1      -1.418  -0.346   0.208  1.00  0.00     0.006 C 
HETATM   10  S1  UNL     1      -2.145   1.324   0.258  1.00  0.00    -0.106 SA
HETATM   11  C9  UNL     1      -3.827   0.724   0.123  1.00  0.00     0.093 A 
HETATM   12  N1  UNL     1      -4.530   0.428   1.250  1.00  0.00    -0.254 NA
HETATM   13  C10 UNL     1      -5.809  -0.030   1.193  1.00  0.00     0.003 A 
HETATM   14  C11 UNL     1      -6.435  -0.206  -0.043  1.00  0.00    -0.066 A 
HETATM   15  C12 UNL     1      -5.734   0.094  -1.213  1.00  0.00    -0.079 A 
HETATM   16  C13 UNL     1      -4.421   0.564  -1.134  1.00  0.00    -0.049 A 
HETATM   17  N2  UNL     1       5.219  -0.209  -0.496  1.00  0.00    -0.361 N 
HETATM   18  C14 UNL     1       6.652   0.057  -0.453  1.00  0.00    -0.018 C 
HETATM   19  H1  UNL     1       2.800   0.173  -1.688  1.00  0.00     0.085 H 
HETATM   20  H2  UNL     1       0.374  -0.069  -1.833  1.00  0.00     0.084 H 
HETATM   21  H3  UNL     1       0.127  -0.324   2.461  1.00  0.00     0.084 H 
HETATM   22  H4  UNL     1       2.562  -0.108   2.619  1.00  0.00     0.085 H 
HETATM   23  H5  UNL     1      -1.708  -0.852  -0.738  1.00  0.00     0.056 H 
HETATM   24  H6  UNL     1      -1.813  -0.950   1.054  1.00  0.00     0.056 H 
HETATM   25  H7  UNL     1      -6.340  -0.257   2.108  1.00  0.00     0.114 H 
HETATM   26  H8  UNL     1      -7.453  -0.571  -0.094  1.00  0.00     0.085 H 
HETATM   27  H9  UNL     1      -6.206  -0.037  -2.178  1.00  0.00     0.083 H 
HETATM   28  H10 UNL     1      -3.872   0.797  -2.037  1.00  0.00     0.087 H 
HETATM   29  H11 UNL     1       4.840  -0.723  -1.322  1.00  0.00     0.162 HD
HETATM   30  H12 UNL     1       6.829   1.150  -0.375  1.00  0.00     0.056 H 
HETATM   31  H13 UNL     1       7.105  -0.456   0.422  1.00  0.00     0.056 H 
HETATM   32  H14 UNL     1       7.135  -0.320  -1.379  1.00  0.00     0.056 H 
TER      33      UNL     1 
ENDMDL
