REMARK FAKE_HEAD_ATOM=C22_N1
REMARK REAL_HEAD_ATOM=C1_C2
REMARK DUMMY_ATOM=C22_H17_H18_H19_N1_H16
REMARK TORSION=O1_C1_C2_C3
REMARK TORSION=C4_C5_C8_O2
REMARK TORSION=C5_C8_O2_C9
REMARK TORSION=C8_O2_C9_C10
REMARK TORSION=O2_C9_C10_C11
REMARK TORSION=C5_C8_C16_C17
MODEL 0
HETATM    1  O1  UNL     1       5.088   1.043   2.395  1.00  0.00    -0.268 OA
HETATM    2  C1  UNL     1       5.007   0.606   1.214  1.00  0.00     0.251 C 
HETATM    3  C2  UNL     1       3.670   0.433   0.594  1.00  0.00     0.032 A 
HETATM    4  C3  UNL     1       2.535   0.269   1.407  1.00  0.00    -0.067 A 
HETATM    5  C4  UNL     1       1.269   0.108   0.838  1.00  0.00    -0.073 A 
HETATM    6  C5  UNL     1       1.108   0.129  -0.558  1.00  0.00    -0.024 A 
HETATM    7  C6  UNL     1       2.241   0.289  -1.371  1.00  0.00    -0.073 A 
HETATM    8  C7  UNL     1       3.508   0.448  -0.802  1.00  0.00    -0.067 A 
HETATM    9  C8  UNL     1      -0.248  -0.086  -1.187  1.00  0.00     0.099 C 
HETATM   10  O2  UNL     1      -1.260   0.540  -0.396  1.00  0.00    -0.302 OA
HETATM   11  C9  UNL     1      -2.587   0.693  -0.817  1.00  0.00     0.294 C 
HETATM   12  C10 UNL     1      -3.582   1.295   0.098  1.00  0.00     0.044 A 
HETATM   13  C11 UNL     1      -3.203   1.692   1.392  1.00  0.00    -0.035 A 
HETATM   14  C12 UNL     1      -4.141   2.261   2.264  1.00  0.00     0.069 A 
HETATM   15  O3  UNL     1      -3.769   2.656   3.548  1.00  0.00    -0.361 OA
HETATM   16  C13 UNL     1      -5.464   2.435   1.847  1.00  0.00    -0.019 A 
HETATM   17  C14 UNL     1      -5.854   2.044   0.563  1.00  0.00     0.069 A 
HETATM   18  O4  UNL     1      -7.177   2.224   0.164  1.00  0.00    -0.361 OA
HETATM   19  C15 UNL     1      -4.916   1.475  -0.309  1.00  0.00    -0.035 A 
HETATM   20  O5  UNL     1      -2.933   0.316  -1.971  1.00  0.00    -0.259 OA
HETATM   21  C16 UNL     1      -0.511  -1.568  -1.332  1.00  0.00    -0.024 A 
HETATM   22  C17 UNL     1      -0.984  -2.327  -0.245  1.00  0.00    -0.074 A 
HETATM   23  C18 UNL     1      -1.193  -3.703  -0.383  1.00  0.00    -0.082 A 
HETATM   24  C19 UNL     1      -0.922  -4.335  -1.599  1.00  0.00    -0.083 A 
HETATM   25  C20 UNL     1      -0.438  -3.592  -2.679  1.00  0.00    -0.082 A 
HETATM   26  C21 UNL     1      -0.228  -2.216  -2.547  1.00  0.00    -0.074 A 
HETATM   27  N1  UNL     1       6.207   0.268   0.502  1.00  0.00    -0.361 N 
HETATM   28  C22 UNL     1       7.526   0.566   1.047  1.00  0.00    -0.018 C 
HETATM   29  H1  UNL     1       2.628   0.250   2.486  1.00  0.00     0.085 H 
HETATM   30  H2  UNL     1       0.416  -0.033   1.489  1.00  0.00     0.084 H 
HETATM   31  H3  UNL     1       2.143   0.295  -2.450  1.00  0.00     0.084 H 
HETATM   32  H4  UNL     1       4.351   0.604  -1.461  1.00  0.00     0.085 H 
HETATM   33  H5  UNL     1      -0.256   0.398  -2.191  1.00  0.00     0.099 H 
HETATM   34  H6  UNL     1      -2.182   1.562   1.730  1.00  0.00     0.089 H 
HETATM   35  H7  UNL     1      -2.819   2.544   3.882  1.00  0.00     0.217 HD
HETATM   36  H8  UNL     1      -6.188   2.874   2.521  1.00  0.00     0.092 H 
HETATM   37  H9  UNL     1      -7.494   1.952  -0.759  1.00  0.00     0.217 HD
HETATM   38  H10 UNL     1      -5.232   1.176  -1.301  1.00  0.00     0.089 H 
HETATM   39  H11 UNL     1      -1.192  -1.856   0.706  1.00  0.00     0.084 H 
HETATM   40  H12 UNL     1      -1.562  -4.280   0.455  1.00  0.00     0.083 H 
HETATM   41  H13 UNL     1      -1.083  -5.400  -1.704  1.00  0.00     0.083 H 
HETATM   42  H14 UNL     1      -0.222  -4.084  -3.619  1.00  0.00     0.083 H 
HETATM   43  H15 UNL     1       0.157  -1.657  -3.391  1.00  0.00     0.084 H 
HETATM   44  H16 UNL     1       6.155  -0.245  -0.405  1.00  0.00     0.162 HD
HETATM   45  H17 UNL     1       8.313   0.211   0.348  1.00  0.00     0.056 H 
HETATM   46  H18 UNL     1       7.656   0.053   2.023  1.00  0.00     0.056 H 
HETATM   47  H19 UNL     1       7.637   1.662   1.185  1.00  0.00     0.056 H 
TER      48      UNL     1 
ENDMDL
