REMARK FAKE_HEAD_ATOM=C24_N2
REMARK REAL_HEAD_ATOM=C1_C2
REMARK DUMMY_ATOM=C24_H26_H27_H28_N2_H25
REMARK TORSION=C4_C5_N1_C8
REMARK TORSION=C5_N1_C8_C9
REMARK TORSION=C5_N1_C14_C15
MODEL 0
HETATM    1  O1  UNL     1       5.482  -1.365  -1.686  1.00  0.00    -0.268 OA
HETATM    2  C1  UNL     1       5.138  -0.822  -0.599  1.00  0.00     0.251 C 
HETATM    3  C2  UNL     1       3.726  -0.412  -0.408  1.00  0.00     0.032 A 
HETATM    4  C3  UNL     1       3.172  -0.284   0.880  1.00  0.00    -0.066 A 
HETATM    5  C4  UNL     1       1.837   0.097   1.042  1.00  0.00    -0.056 A 
HETATM    6  C5  UNL     1       1.032   0.344  -0.076  1.00  0.00     0.035 A 
HETATM    7  C6  UNL     1       1.575   0.219  -1.361  1.00  0.00    -0.056 A 
HETATM    8  C7  UNL     1       2.909  -0.163  -1.526  1.00  0.00    -0.066 A 
HETATM    9  N1  UNL     1      -0.338   0.738   0.103  1.00  0.00    -0.337 N 
HETATM   10  C8  UNL     1      -0.594   2.151   0.135  1.00  0.00     0.035 A 
HETATM   11  C9  UNL     1      -0.760   2.872  -1.058  1.00  0.00    -0.057 A 
HETATM   12  C10 UNL     1      -0.998   4.249  -1.017  1.00  0.00    -0.081 A 
HETATM   13  C11 UNL     1      -1.064   4.913   0.212  1.00  0.00    -0.083 A 
HETATM   14  C12 UNL     1      -0.886   4.200   1.402  1.00  0.00    -0.081 A 
HETATM   15  C13 UNL     1      -0.647   2.823   1.364  1.00  0.00    -0.057 A 
HETATM   16  C14 UNL     1      -1.447  -0.251   0.050  1.00  0.00     0.039 C 
HETATM   17  C15 UNL     1      -2.651   0.220   0.924  1.00  0.00    -0.038 C 
HETATM   18  C16 UNL     1      -3.804  -0.804   0.856  1.00  0.00    -0.051 C 
HETATM   19  C17 UNL     1      -4.269  -0.955  -0.608  1.00  0.00    -0.058 C 
HETATM   20  C18 UNL     1      -3.092  -1.451  -1.475  1.00  0.00    -0.051 C 
HETATM   21  C19 UNL     1      -1.937  -0.426  -1.414  1.00  0.00    -0.038 C 
HETATM   22  C20 UNL     1      -2.602  -2.815  -0.944  1.00  0.00    -0.058 C 
HETATM   23  C21 UNL     1      -2.139  -2.662   0.520  1.00  0.00    -0.051 C 
HETATM   24  C22 UNL     1      -3.315  -2.167   1.386  1.00  0.00    -0.058 C 
HETATM   25  C23 UNL     1      -0.983  -1.641   0.588  1.00  0.00    -0.038 C 
HETATM   26  N2  UNL     1       6.124  -0.598   0.421  1.00  0.00    -0.361 N 
HETATM   27  C24 UNL     1       7.478  -1.123   0.301  1.00  0.00    -0.018 C 
HETATM   28  H1  UNL     1       3.756  -0.501   1.764  1.00  0.00     0.085 H 
HETATM   29  H2  UNL     1       1.424   0.191   2.038  1.00  0.00     0.087 H 
HETATM   30  H3  UNL     1       0.968   0.423  -2.233  1.00  0.00     0.087 H 
HETATM   31  H4  UNL     1       3.306  -0.251  -2.530  1.00  0.00     0.085 H 
HETATM   32  H5  UNL     1      -0.699   2.370  -2.014  1.00  0.00     0.086 H 
HETATM   33  H6  UNL     1      -1.129   4.802  -1.938  1.00  0.00     0.083 H 
HETATM   34  H7  UNL     1      -1.248   5.979   0.242  1.00  0.00     0.083 H 
HETATM   35  H8  UNL     1      -0.932   4.716   2.352  1.00  0.00     0.083 H 
HETATM   36  H9  UNL     1      -0.507   2.278   2.288  1.00  0.00     0.086 H 
HETATM   37  H10 UNL     1      -3.032   1.203   0.570  1.00  0.00     0.037 H 
HETATM   38  H11 UNL     1      -2.327   0.349   1.980  1.00  0.00     0.037 H 
HETATM   39  H12 UNL     1      -4.653  -0.448   1.479  1.00  0.00     0.040 H 
HETATM   40  H13 UNL     1      -5.114  -1.676  -0.666  1.00  0.00     0.034 H 
HETATM   41  H14 UNL     1      -4.640   0.021  -0.993  1.00  0.00     0.034 H 
HETATM   42  H15 UNL     1      -3.430  -1.564  -2.528  1.00  0.00     0.040 H 
HETATM   43  H16 UNL     1      -2.290   0.546  -1.821  1.00  0.00     0.037 H 
HETATM   44  H17 UNL     1      -1.103  -0.776  -2.060  1.00  0.00     0.037 H 
HETATM   45  H18 UNL     1      -3.422  -3.564  -1.007  1.00  0.00     0.034 H 
HETATM   46  H19 UNL     1      -1.763  -3.188  -1.572  1.00  0.00     0.034 H 
HETATM   47  H20 UNL     1      -1.787  -3.646   0.902  1.00  0.00     0.040 H 
HETATM   48  H21 UNL     1      -2.992  -2.069   2.446  1.00  0.00     0.034 H 
HETATM   49  H22 UNL     1      -4.145  -2.906   1.359  1.00  0.00     0.034 H 
HETATM   50  H23 UNL     1      -0.630  -1.545   1.639  1.00  0.00     0.037 H 
HETATM   51  H24 UNL     1      -0.133  -2.031  -0.014  1.00  0.00     0.037 H 
HETATM   52  H25 UNL     1       5.897  -0.007   1.251  1.00  0.00     0.162 HD
HETATM   53  H26 UNL     1       8.079  -0.824   1.186  1.00  0.00     0.056 H 
HETATM   54  H27 UNL     1       7.448  -2.232   0.246  1.00  0.00     0.056 H 
HETATM   55  H28 UNL     1       7.961  -0.718  -0.613  1.00  0.00     0.056 H 
TER      56      UNL     1 
ENDMDL
