REMARK FAKE_HEAD_ATOM=C1_N1
REMARK REAL_HEAD_ATOM=C2_C3
REMARK DUMMY_ATOM=C1_H1_H2_H3_N1_H4
REMARK TORSION=C5_C6_N2_C7
REMARK TORSION=C6_N2_C7_C8
REMARK TORSION=C6_N2_C18_C19
REMARK TORSION=N2_C7_C8_C9
MODEL 0
HETATM    1  C1  UNL     1       7.319  -3.156  -1.024  1.00  0.00    -0.018 C 
HETATM    2  N1  UNL     1       6.031  -2.672  -0.545  1.00  0.00    -0.361 N 
HETATM    3  C2  UNL     1       5.724  -1.269  -0.504  1.00  0.00     0.251 C 
HETATM    4  C3  UNL     1       4.365  -0.790  -0.153  1.00  0.00     0.032 A 
HETATM    5  C4  UNL     1       3.233  -1.597  -0.355  1.00  0.00    -0.066 A 
HETATM    6  C5  UNL     1       1.957  -1.129  -0.026  1.00  0.00    -0.056 A 
HETATM    7  C6  UNL     1       1.777   0.161   0.505  1.00  0.00     0.034 A 
HETATM    8  N2  UNL     1       0.457   0.659   0.844  1.00  0.00    -0.346 N 
HETATM    9  C7  UNL     1      -0.543  -0.226   1.483  1.00  0.00     0.007 C 
HETATM   10  C8  UNL     1      -1.866  -0.400   0.668  1.00  0.00    -0.023 C 
HETATM   11  C9  UNL     1      -2.635  -1.628   1.241  1.00  0.00    -0.053 C 
HETATM   12  C10 UNL     1      -1.594  -0.659  -0.843  1.00  0.00    -0.053 C 
HETATM   13  C11 UNL     1      -2.925  -0.869  -1.600  1.00  0.00    -0.053 C 
HETATM   14  C12 UNL     1      -3.662  -2.092  -1.014  1.00  0.00    -0.058 C 
HETATM   15  C13 UNL     1      -3.960  -1.847   0.480  1.00  0.00    -0.053 C 
HETATM   16  C14 UNL     1      -4.849  -0.595   0.631  1.00  0.00    -0.058 C 
HETATM   17  C15 UNL     1      -4.115   0.628   0.045  1.00  0.00    -0.053 C 
HETATM   18  C16 UNL     1      -3.812   0.386  -1.449  1.00  0.00    -0.058 C 
HETATM   19  C17 UNL     1      -2.789   0.850   0.804  1.00  0.00    -0.053 C 
HETATM   20  C18 UNL     1       0.201   2.074   0.731  1.00  0.00     0.034 A 
HETATM   21  C19 UNL     1      -0.177   2.832   1.854  1.00  0.00    -0.057 A 
HETATM   22  C20 UNL     1      -0.424   4.202   1.726  1.00  0.00    -0.081 A 
HETATM   23  C21 UNL     1      -0.287   4.827   0.484  1.00  0.00    -0.083 A 
HETATM   24  C22 UNL     1       0.103   4.083  -0.633  1.00  0.00    -0.081 A 
HETATM   25  C23 UNL     1       0.352   2.714  -0.510  1.00  0.00    -0.057 A 
HETATM   26  C24 UNL     1       2.915   0.969   0.699  1.00  0.00    -0.056 A 
HETATM   27  C25 UNL     1       4.189   0.502   0.369  1.00  0.00    -0.066 A 
HETATM   28  O1  UNL     1       6.630  -0.428  -0.756  1.00  0.00    -0.268 OA
HETATM   29  H1  UNL     1       8.137  -2.735  -0.402  1.00  0.00     0.056 H 
HETATM   30  H2  UNL     1       7.355  -4.264  -0.958  1.00  0.00     0.056 H 
HETATM   31  H3  UNL     1       7.464  -2.855  -2.083  1.00  0.00     0.056 H 
HETATM   32  H4  UNL     1       5.346  -3.372  -0.182  1.00  0.00     0.162 HD
HETATM   33  H5  UNL     1       3.321  -2.583  -0.791  1.00  0.00     0.085 H 
HETATM   34  H6  UNL     1       1.117  -1.781  -0.201  1.00  0.00     0.087 H 
HETATM   35  H7  UNL     1      -0.093  -1.224   1.670  1.00  0.00     0.066 H 
HETATM   36  H8  UNL     1      -0.782   0.155   2.498  1.00  0.00     0.066 H 
HETATM   37  H9  UNL     1      -2.849  -1.476   2.322  1.00  0.00     0.034 H 
HETATM   38  H10 UNL     1      -2.013  -2.547   1.157  1.00  0.00     0.034 H 
HETATM   39  H11 UNL     1      -1.047   0.195  -1.296  1.00  0.00     0.034 H 
HETATM   40  H12 UNL     1      -0.969  -1.567  -0.973  1.00  0.00     0.034 H 
HETATM   41  H13 UNL     1      -2.714  -1.045  -2.677  1.00  0.00     0.040 H 
HETATM   42  H14 UNL     1      -3.038  -3.005  -1.132  1.00  0.00     0.034 H 
HETATM   43  H15 UNL     1      -4.611  -2.265  -1.568  1.00  0.00     0.034 H 
HETATM   44  H16 UNL     1      -4.489  -2.729   0.902  1.00  0.00     0.040 H 
HETATM   45  H17 UNL     1      -5.083  -0.421   1.704  1.00  0.00     0.034 H 
HETATM   46  H18 UNL     1      -5.814  -0.749   0.101  1.00  0.00     0.034 H 
HETATM   47  H19 UNL     1      -4.757   1.529   0.151  1.00  0.00     0.040 H 
HETATM   48  H20 UNL     1      -4.762   0.249  -2.012  1.00  0.00     0.034 H 
HETATM   49  H21 UNL     1      -3.295   1.271  -1.882  1.00  0.00     0.034 H 
HETATM   50  H22 UNL     1      -2.310   1.752   0.379  1.00  0.00     0.034 H 
HETATM   51  H23 UNL     1      -3.003   1.059   1.876  1.00  0.00     0.034 H 
HETATM   52  H24 UNL     1      -0.271   2.370   2.827  1.00  0.00     0.086 H 
HETATM   53  H25 UNL     1      -0.718   4.781   2.592  1.00  0.00     0.083 H 
HETATM   54  H26 UNL     1      -0.479   5.888   0.388  1.00  0.00     0.083 H 
HETATM   55  H27 UNL     1       0.214   4.569  -1.594  1.00  0.00     0.083 H 
HETATM   56  H28 UNL     1       0.652   2.146  -1.382  1.00  0.00     0.086 H 
HETATM   57  H29 UNL     1       2.821   1.962   1.120  1.00  0.00     0.087 H 
HETATM   58  H30 UNL     1       5.041   1.149   0.538  1.00  0.00     0.085 H 
TER      59      UNL     1 
ENDMDL
