REMARK FAKE_HEAD_ATOM=C1_N1
REMARK REAL_HEAD_ATOM=C2_C3
REMARK DUMMY_ATOM=C1_H1_H2_H3_N1_H4
REMARK TORSION=C5_C6_N2_C9
REMARK TORSION=C6_N2_C9_C10
REMARK TORSION=N2_C9_C10_C11
REMARK TORSION=C6_N2_C18_C19
MODEL 0
HETATM    1  C1  UNL     1       7.300  -1.608  -0.144  1.00  0.00    -0.018 C 
HETATM    2  N1  UNL     1       5.971  -1.103  -0.467  1.00  0.00    -0.361 N 
HETATM    3  C2  UNL     1       4.784  -1.758   0.005  1.00  0.00     0.251 C 
HETATM    4  O1  UNL     1       4.881  -2.870   0.594  1.00  0.00    -0.268 OA
HETATM    5  C3  UNL     1       3.442  -1.162  -0.204  1.00  0.00     0.032 A 
HETATM    6  C4  UNL     1       2.302  -1.984  -0.212  1.00  0.00    -0.066 A 
HETATM    7  C5  UNL     1       1.030  -1.436  -0.402  1.00  0.00    -0.056 A 
HETATM    8  C6  UNL     1       0.867  -0.051  -0.580  1.00  0.00     0.034 A 
HETATM    9  C7  UNL     1       2.007   0.771  -0.559  1.00  0.00    -0.056 A 
HETATM   10  C8  UNL     1       3.279   0.224  -0.370  1.00  0.00    -0.066 A 
HETATM   11  N2  UNL     1      -0.445   0.531  -0.768  1.00  0.00    -0.346 N 
HETATM   12  C9  UNL     1      -1.490  -0.181  -1.520  1.00  0.00     0.009 C 
HETATM   13  C10 UNL     1      -2.612  -0.638  -0.589  1.00  0.00    -0.011 A 
HETATM   14  C11 UNL     1      -3.713   0.282  -0.038  1.00  0.00    -0.036 A 
HETATM   15  C12 UNL     1      -4.769  -0.783  -0.406  1.00  0.00    -0.041 A 
HETATM   16  C13 UNL     1      -4.599  -1.434   0.984  1.00  0.00    -0.041 A 
HETATM   17  C14 UNL     1      -3.541  -0.371   1.352  1.00  0.00    -0.041 A 
HETATM   18  C15 UNL     1      -2.428  -1.285   0.793  1.00  0.00    -0.036 A 
HETATM   19  C16 UNL     1      -3.488  -2.346   0.421  1.00  0.00    -0.041 A 
HETATM   20  C17 UNL     1      -3.659  -1.696  -0.971  1.00  0.00    -0.036 A 
HETATM   21  C18 UNL     1      -0.761   1.792  -0.145  1.00  0.00     0.034 A 
HETATM   22  C19 UNL     1      -0.544   1.970   1.232  1.00  0.00    -0.057 A 
HETATM   23  C20 UNL     1      -0.872   3.181   1.848  1.00  0.00    -0.081 A 
HETATM   24  C21 UNL     1      -1.416   4.224   1.094  1.00  0.00    -0.083 A 
HETATM   25  C22 UNL     1      -1.631   4.058  -0.277  1.00  0.00    -0.081 A 
HETATM   26  C23 UNL     1      -1.305   2.848  -0.896  1.00  0.00    -0.057 A 
HETATM   27  H1  UNL     1       8.073  -0.966  -0.618  1.00  0.00     0.056 H 
HETATM   28  H2  UNL     1       7.413  -2.645  -0.525  1.00  0.00     0.056 H 
HETATM   29  H3  UNL     1       7.449  -1.597   0.956  1.00  0.00     0.056 H 
HETATM   30  H4  UNL     1       5.901  -0.273  -1.096  1.00  0.00     0.162 HD
HETATM   31  H5  UNL     1       2.394  -3.054  -0.078  1.00  0.00     0.085 H 
HETATM   32  H6  UNL     1       0.177  -2.100  -0.394  1.00  0.00     0.087 H 
HETATM   33  H7  UNL     1       1.912   1.842  -0.692  1.00  0.00     0.087 H 
HETATM   34  H8  UNL     1       4.126   0.895  -0.333  1.00  0.00     0.085 H 
HETATM   35  H9  UNL     1      -1.070  -1.061  -2.050  1.00  0.00     0.066 H 
HETATM   36  H10 UNL     1      -1.916   0.478  -2.304  1.00  0.00     0.066 H 
HETATM   37  H11 UNL     1      -3.807   1.371  -0.229  1.00  0.00     0.042 H 
HETATM   38  H12 UNL     1      -5.741  -0.576  -0.900  1.00  0.00     0.042 H 
HETATM   39  H13 UNL     1      -5.429  -1.766   1.642  1.00  0.00     0.041 H 
HETATM   40  H14 UNL     1      -3.493   0.179   2.314  1.00  0.00     0.042 H 
HETATM   41  H15 UNL     1      -1.463  -1.485   1.304  1.00  0.00     0.042 H 
HETATM   42  H16 UNL     1      -3.398  -3.435   0.612  1.00  0.00     0.042 H 
HETATM   43  H17 UNL     1      -3.700  -2.242  -1.936  1.00  0.00     0.042 H 
HETATM   44  H18 UNL     1      -0.135   1.163   1.827  1.00  0.00     0.086 H 
HETATM   45  H19 UNL     1      -0.707   3.309   2.909  1.00  0.00     0.083 H 
HETATM   46  H20 UNL     1      -1.670   5.162   1.572  1.00  0.00     0.083 H 
HETATM   47  H21 UNL     1      -2.048   4.869  -0.860  1.00  0.00     0.083 H 
HETATM   48  H22 UNL     1      -1.466   2.740  -1.961  1.00  0.00     0.086 H 
TER      49      UNL     1 
ENDMDL
