REMARK FAKE_HEAD_ATOM=C1_N1
REMARK REAL_HEAD_ATOM=C2_C3
REMARK DUMMY_ATOM=C1_H1_H2_H3_N1_H4
REMARK TORSION=C5_C6_N2_C7
REMARK TORSION=C6_N2_C7_C8
REMARK TORSION=N2_C7_C8_C9
REMARK TORSION=C6_N2_C19_C20
MODEL 0
HETATM    1  C1  UNL     1       6.385  -3.324   1.039  1.00  0.00    -0.018 C 
HETATM    2  N1  UNL     1       5.191  -2.618   0.589  1.00  0.00    -0.361 N 
HETATM    3  C2  UNL     1       4.426  -1.793   1.482  1.00  0.00     0.251 C 
HETATM    4  C3  UNL     1       3.298  -0.967   0.987  1.00  0.00     0.032 A 
HETATM    5  C4  UNL     1       2.273  -0.579   1.867  1.00  0.00    -0.066 A 
HETATM    6  C5  UNL     1       1.205   0.201   1.415  1.00  0.00    -0.056 A 
HETATM    7  C6  UNL     1       1.137   0.606   0.074  1.00  0.00     0.034 A 
HETATM    8  N2  UNL     1       0.035   1.405  -0.396  1.00  0.00    -0.346 N 
HETATM    9  C7  UNL     1      -0.771   0.934  -1.540  1.00  0.00     0.008 C 
HETATM   10  C8  UNL     1      -1.795  -0.175  -1.185  1.00  0.00    -0.015 C 
HETATM   11  C9  UNL     1      -3.026   0.252  -0.352  1.00  0.00    -0.041 C 
HETATM   12  C10 UNL     1      -4.080  -0.881  -0.728  1.00  0.00    -0.046 C 
HETATM   13  C11 UNL     1      -4.319  -1.871   0.422  1.00  0.00    -0.057 C 
HETATM   14  C12 UNL     1      -2.904  -2.421   0.653  1.00  0.00    -0.046 A 
HETATM   15  C13 UNL     1      -1.876  -1.313   1.025  1.00  0.00    -0.045 A 
HETATM   16  C14 UNL     1      -2.520   0.080   1.087  1.00  0.00    -0.057 C 
HETATM   17  C15 UNL     1      -1.283  -1.400  -0.388  1.00  0.00    -0.037 A 
HETATM   18  C16 UNL     1      -2.302  -2.488  -0.750  1.00  0.00    -0.042 A 
HETATM   19  C17 UNL     1      -3.277  -1.759  -1.700  1.00  0.00    -0.045 C 
HETATM   20  C18 UNL     1      -2.400  -0.787  -2.426  1.00  0.00    -0.052 C 
HETATM   21  C19 UNL     1       0.085   2.817  -0.118  1.00  0.00     0.034 A 
HETATM   22  C20 UNL     1       0.396   3.729  -1.144  1.00  0.00    -0.057 A 
HETATM   23  C21 UNL     1       0.462   5.099  -0.876  1.00  0.00    -0.081 A 
HETATM   24  C22 UNL     1       0.225   5.572   0.417  1.00  0.00    -0.083 A 
HETATM   25  C23 UNL     1      -0.075   4.674   1.444  1.00  0.00    -0.081 A 
HETATM   26  C24 UNL     1      -0.141   3.302   1.181  1.00  0.00    -0.057 A 
HETATM   27  C25 UNL     1       2.175   0.246  -0.800  1.00  0.00    -0.056 A 
HETATM   28  C26 UNL     1       3.244  -0.534  -0.349  1.00  0.00    -0.066 A 
HETATM   29  O1  UNL     1       4.706  -1.784   2.712  1.00  0.00    -0.268 OA
HETATM   30  H1  UNL     1       6.814  -3.912   0.200  1.00  0.00     0.056 H 
HETATM   31  H2  UNL     1       7.144  -2.594   1.390  1.00  0.00     0.056 H 
HETATM   32  H3  UNL     1       6.124  -4.018   1.866  1.00  0.00     0.056 H 
HETATM   33  H4  UNL     1       4.875  -2.764  -0.395  1.00  0.00     0.162 HD
HETATM   34  H5  UNL     1       2.289  -0.891   2.904  1.00  0.00     0.085 H 
HETATM   35  H6  UNL     1       0.426   0.469   2.113  1.00  0.00     0.087 H 
HETATM   36  H7  UNL     1      -0.097   0.568  -2.344  1.00  0.00     0.066 H 
HETATM   37  H8  UNL     1      -1.342   1.780  -1.983  1.00  0.00     0.066 H 
HETATM   38  H9  UNL     1      -3.391   1.277  -0.577  1.00  0.00     0.042 H 
HETATM   39  H10 UNL     1      -5.016  -0.479  -1.172  1.00  0.00     0.041 H 
HETATM   40  H11 UNL     1      -4.998  -2.690   0.096  1.00  0.00     0.034 H 
HETATM   41  H12 UNL     1      -4.763  -1.403   1.325  1.00  0.00     0.034 H 
HETATM   42  H13 UNL     1      -2.823  -3.360   1.242  1.00  0.00     0.041 H 
HETATM   43  H14 UNL     1      -1.176  -1.576   1.846  1.00  0.00     0.041 H 
HETATM   44  H15 UNL     1      -3.323   0.158   1.848  1.00  0.00     0.034 H 
HETATM   45  H16 UNL     1      -1.769   0.850   1.334  1.00  0.00     0.034 H 
HETATM   46  H17 UNL     1      -0.221  -1.710  -0.490  1.00  0.00     0.042 H 
HETATM   47  H18 UNL     1      -1.879  -3.462  -1.079  1.00  0.00     0.041 H 
HETATM   48  H19 UNL     1      -3.887  -2.428  -2.344  1.00  0.00     0.041 H 
HETATM   49  H20 UNL     1      -1.646  -1.303  -3.065  1.00  0.00     0.034 H 
HETATM   50  H21 UNL     1      -2.988  -0.056  -3.028  1.00  0.00     0.034 H 
HETATM   51  H22 UNL     1       0.597   3.375  -2.147  1.00  0.00     0.086 H 
HETATM   52  H23 UNL     1       0.701   5.794  -1.670  1.00  0.00     0.083 H 
HETATM   53  H24 UNL     1       0.277   6.633   0.623  1.00  0.00     0.083 H 
HETATM   54  H25 UNL     1      -0.256   5.041   2.446  1.00  0.00     0.083 H 
HETATM   55  H26 UNL     1      -0.379   2.628   1.991  1.00  0.00     0.086 H 
HETATM   56  H27 UNL     1       2.168   0.584  -1.827  1.00  0.00     0.087 H 
HETATM   57  H28 UNL     1       4.038  -0.769  -1.045  1.00  0.00     0.085 H 
TER      58      UNL     1 
ENDMDL
