REMARK FAKE_HEAD_ATOM=C1_N1
REMARK REAL_HEAD_ATOM=C2_C3
REMARK DUMMY_ATOM=C1_H1_H2_H3_N1_H4
MODEL 0
HETATM    1  C1  UNL     1      -4.601   0.166   0.218  1.00  0.00    -0.018 C 
HETATM    2  N1  UNL     1      -3.157   0.074   0.396  1.00  0.00    -0.361 N 
HETATM    3  C2  UNL     1      -2.324  -0.601  -0.560  1.00  0.00     0.251 C 
HETATM    4  C3  UNL     1      -0.845  -0.566  -0.450  1.00  0.00     0.032 A 
HETATM    5  C4  UNL     1      -0.189   0.499   0.195  1.00  0.00    -0.057 A 
HETATM    6  C5  UNL     1       1.211   0.522   0.289  1.00  0.00    -0.025 A 
HETATM    7  C6  UNL     1       1.971  -0.529  -0.277  1.00  0.00    -0.026 A 
HETATM    8  C7  UNL     1       1.318  -1.582  -0.930  1.00  0.00    -0.071 A 
HETATM    9  C8  UNL     1      -0.077  -1.598  -1.019  1.00  0.00    -0.067 A 
HETATM   10  C9  UNL     1       3.372  -0.504  -0.183  1.00  0.00    -0.072 A 
HETATM   11  C10 UNL     1       4.012   0.556   0.465  1.00  0.00    -0.082 A 
HETATM   12  C11 UNL     1       3.263   1.596   1.021  1.00  0.00    -0.082 A 
HETATM   13  C12 UNL     1       1.868   1.582   0.935  1.00  0.00    -0.072 A 
HETATM   14  O1  UNL     1      -2.859  -1.250  -1.501  1.00  0.00    -0.268 OA
HETATM   15  H1  UNL     1      -4.830   0.715  -0.719  1.00  0.00     0.056 H 
HETATM   16  H2  UNL     1      -5.041  -0.852   0.171  1.00  0.00     0.056 H 
HETATM   17  H3  UNL     1      -5.052   0.712   1.073  1.00  0.00     0.056 H 
HETATM   18  H4  UNL     1      -2.742   0.472   1.267  1.00  0.00     0.162 HD
HETATM   19  H5  UNL     1      -0.759   1.323   0.605  1.00  0.00     0.086 H 
HETATM   20  H6  UNL     1       1.884  -2.394  -1.371  1.00  0.00     0.084 H 
HETATM   21  H7  UNL     1      -0.557  -2.426  -1.525  1.00  0.00     0.085 H 
HETATM   22  H8  UNL     1       3.969  -1.301  -0.611  1.00  0.00     0.084 H 
HETATM   23  H9  UNL     1       5.092   0.572   0.535  1.00  0.00     0.083 H 
HETATM   24  H10 UNL     1       3.765   2.414   1.521  1.00  0.00     0.083 H 
HETATM   25  H11 UNL     1       1.304   2.397   1.372  1.00  0.00     0.084 H 
TER      26      UNL     1 
ENDMDL
