REMARK FAKE_HEAD_ATOM=C1_N1
REMARK REAL_HEAD_ATOM=C2_C3
REMARK DUMMY_ATOM=C1_H1_H2_H3_N1_H4
REMARK TORSION=C7_C8_O1_C9
REMARK TORSION=C8_O1_C9_C10
MODEL 0
HETATM    1  C1  UNL     1       5.679  -1.229   0.227  1.00  0.00    -0.018 C 
HETATM    2  N1  UNL     1       4.282  -1.025  -0.138  1.00  0.00    -0.361 N 
HETATM    3  C2  UNL     1       3.688   0.282  -0.133  1.00  0.00     0.251 C 
HETATM    4  C3  UNL     1       2.234   0.467  -0.363  1.00  0.00     0.032 A 
HETATM    5  C4  UNL     1       1.315  -0.560  -0.082  1.00  0.00    -0.065 A 
HETATM    6  C5  UNL     1      -0.053  -0.366  -0.297  1.00  0.00    -0.049 A 
HETATM    7  C6  UNL     1       1.751   1.694  -0.854  1.00  0.00    -0.065 A 
HETATM    8  C7  UNL     1       0.383   1.883  -1.070  1.00  0.00    -0.049 A 
HETATM    9  C8  UNL     1      -0.529   0.865  -0.781  1.00  0.00     0.076 A 
HETATM   10  O1  UNL     1      -1.891   1.090  -1.026  1.00  0.00    -0.311 OA
HETATM   11  C9  UNL     1      -2.953   0.514  -0.312  1.00  0.00     0.076 A 
HETATM   12  C10 UNL     1      -4.169   0.297  -0.973  1.00  0.00    -0.050 A 
HETATM   13  C11 UNL     1      -5.254  -0.262  -0.291  1.00  0.00    -0.080 A 
HETATM   14  C12 UNL     1      -5.135  -0.595   1.061  1.00  0.00    -0.083 A 
HETATM   15  C13 UNL     1      -3.932  -0.364   1.734  1.00  0.00    -0.080 A 
HETATM   16  C14 UNL     1      -2.845   0.194   1.054  1.00  0.00    -0.050 A 
HETATM   17  O2  UNL     1       4.417   1.295   0.054  1.00  0.00    -0.268 OA
HETATM   18  H1  UNL     1       5.938  -2.305   0.142  1.00  0.00     0.056 H 
HETATM   19  H2  UNL     1       5.845  -0.901   1.274  1.00  0.00     0.056 H 
HETATM   20  H3  UNL     1       6.336  -0.648  -0.454  1.00  0.00     0.056 H 
HETATM   21  H4  UNL     1       3.731  -1.854  -0.453  1.00  0.00     0.162 HD
HETATM   22  H5  UNL     1       1.642  -1.508   0.322  1.00  0.00     0.085 H 
HETATM   23  H6  UNL     1      -0.737  -1.181  -0.099  1.00  0.00     0.087 H 
HETATM   24  H7  UNL     1       2.433   2.503  -1.084  1.00  0.00     0.085 H 
HETATM   25  H8  UNL     1       0.030   2.831  -1.458  1.00  0.00     0.087 H 
HETATM   26  H9  UNL     1      -4.269   0.555  -2.020  1.00  0.00     0.087 H 
HETATM   27  H10 UNL     1      -6.188  -0.434  -0.810  1.00  0.00     0.083 H 
HETATM   28  H11 UNL     1      -5.976  -1.025   1.589  1.00  0.00     0.083 H 
HETATM   29  H12 UNL     1      -3.845  -0.610   2.785  1.00  0.00     0.083 H 
HETATM   30  H13 UNL     1      -1.931   0.393   1.598  1.00  0.00     0.087 H 
TER      31      UNL     1 
ENDMDL
