REMARK FAKE_HEAD_ATOM=C14_N1
REMARK REAL_HEAD_ATOM=C13_C12
REMARK DUMMY_ATOM=C14_H7_H8_H9_N1_H6
MODEL 0
HETATM    1  O1  UNL     1       1.865  -0.395   2.295  1.00  0.00    -0.287 OA
HETATM    2  C1  UNL     1       1.699  -0.192   1.060  1.00  0.00     0.194 A 
HETATM    3  C2  UNL     1       2.871  -0.151   0.154  1.00  0.00     0.032 A 
HETATM    4  C3  UNL     1       2.685   0.077  -1.227  1.00  0.00     0.029 A 
HETATM    5  C4  UNL     1       3.804   0.114  -2.079  1.00  0.00    -0.065 A 
HETATM    6  C5  UNL     1       5.090  -0.073  -1.566  1.00  0.00    -0.045 A 
HETATM    7  C6  UNL     1       5.274  -0.298  -0.202  1.00  0.00     0.117 A 
HETATM    8  F1  UNL     1       6.523  -0.478   0.292  1.00  0.00    -0.206 F 
HETATM    9  C7  UNL     1       4.172  -0.337   0.656  1.00  0.00    -0.031 A 
HETATM   10  C8  UNL     1       1.319   0.274  -1.766  1.00  0.00     0.194 A 
HETATM   11  C9  UNL     1       0.148   0.232  -0.859  1.00  0.00     0.029 A 
HETATM   12  C10 UNL     1      -1.151   0.422  -1.360  1.00  0.00    -0.067 A 
HETATM   13  C11 UNL     1      -2.254   0.383  -0.507  1.00  0.00    -0.067 A 
HETATM   14  C12 UNL     1      -2.086   0.146   0.867  1.00  0.00     0.033 A 
HETATM   15  C13 UNL     1      -3.250   0.107   1.786  1.00  0.00     0.251 C 
HETATM   16  N1  UNL     1      -4.561  -0.237   1.311  1.00  0.00    -0.361 N 
HETATM   17  C14 UNL     1      -5.734  -0.142   2.173  1.00  0.00    -0.018 C 
HETATM   18  O2  UNL     1      -3.082   0.367   3.009  1.00  0.00    -0.268 OA
HETATM   19  C15 UNL     1      -0.786  -0.032   1.372  1.00  0.00    -0.053 A 
HETATM   20  C16 UNL     1       0.332   0.005   0.520  1.00  0.00     0.030 A 
HETATM   21  O3  UNL     1       1.153   0.478  -3.001  1.00  0.00    -0.287 OA
HETATM   22  H1  UNL     1       3.687   0.287  -3.141  1.00  0.00     0.085 H 
HETATM   23  H2  UNL     1       5.945  -0.043  -2.230  1.00  0.00     0.088 H 
HETATM   24  H3  UNL     1       4.337  -0.513   1.712  1.00  0.00     0.089 H 
HETATM   25  H4  UNL     1      -1.315   0.609  -2.414  1.00  0.00     0.085 H 
HETATM   26  H5  UNL     1      -3.235   0.563  -0.926  1.00  0.00     0.085 H 
HETATM   27  H6  UNL     1      -4.691  -0.610   0.345  1.00  0.00     0.162 HD
HETATM   28  H7  UNL     1      -5.873   0.909   2.502  1.00  0.00     0.056 H 
HETATM   29  H8  UNL     1      -5.604  -0.796   3.060  1.00  0.00     0.056 H 
HETATM   30  H9  UNL     1      -6.638  -0.467   1.617  1.00  0.00     0.056 H 
HETATM   31  H10 UNL     1      -0.647  -0.211   2.432  1.00  0.00     0.086 H 
TER      32      UNL     1 
ENDMDL
