REMARK FAKE_HEAD_ATOM=C1_N1
REMARK REAL_HEAD_ATOM=C2_C3
REMARK DUMMY_ATOM=C1_H1_H2_H3_N1_H4
REMARK TORSION=C7_C8_C9_C10
REMARK TORSION=C8_C9_C10_C11
MODEL 0
HETATM    1  C1  UNL     1      -5.648   0.003  -1.170  1.00  0.00    -0.018 C 
HETATM    2  N1  UNL     1      -4.237  -0.195  -0.864  1.00  0.00    -0.361 N 
HETATM    3  C2  UNL     1      -3.549   0.637   0.083  1.00  0.00     0.251 C 
HETATM    4  C3  UNL     1      -2.156   0.343   0.496  1.00  0.00     0.032 A 
HETATM    5  C4  UNL     1      -1.635  -0.962   0.426  1.00  0.00    -0.067 A 
HETATM    6  C5  UNL     1      -0.321  -1.224   0.824  1.00  0.00    -0.076 A 
HETATM    7  C6  UNL     1      -1.337   1.375   0.989  1.00  0.00    -0.067 A 
HETATM    8  C7  UNL     1      -0.023   1.112   1.385  1.00  0.00    -0.076 A 
HETATM    9  C8  UNL     1       0.492  -0.191   1.313  1.00  0.00    -0.054 A 
HETATM   10  C9  UNL     1       1.919  -0.467   1.704  1.00  0.00    -0.017 C 
HETATM   11  C10 UNL     1       2.825  -0.299   0.515  1.00  0.00    -0.054 A 
HETATM   12  C11 UNL     1       3.379   0.958   0.218  1.00  0.00    -0.077 A 
HETATM   13  C12 UNL     1       4.192   1.120  -0.908  1.00  0.00    -0.082 A 
HETATM   14  C13 UNL     1       4.451   0.034  -1.748  1.00  0.00    -0.083 A 
HETATM   15  C14 UNL     1       3.893  -1.216  -1.466  1.00  0.00    -0.082 A 
HETATM   16  C15 UNL     1       3.079  -1.383  -0.341  1.00  0.00    -0.077 A 
HETATM   17  O1  UNL     1      -4.135   1.647   0.562  1.00  0.00    -0.268 OA
HETATM   18  H1  UNL     1      -5.810   1.027  -1.566  1.00  0.00     0.056 H 
HETATM   19  H2  UNL     1      -6.255  -0.140  -0.251  1.00  0.00     0.056 H 
HETATM   20  H3  UNL     1      -5.976  -0.733  -1.934  1.00  0.00     0.056 H 
HETATM   21  H4  UNL     1      -3.718  -0.932  -1.392  1.00  0.00     0.162 HD
HETATM   22  H5  UNL     1      -2.243  -1.789   0.085  1.00  0.00     0.085 H 
HETATM   23  H6  UNL     1       0.062  -2.235   0.755  1.00  0.00     0.084 H 
HETATM   24  H7  UNL     1      -1.708   2.390   1.054  1.00  0.00     0.085 H 
HETATM   25  H8  UNL     1       0.595   1.925   1.747  1.00  0.00     0.084 H 
HETATM   26  H9  UNL     1       2.011  -1.498   2.112  1.00  0.00     0.047 H 
HETATM   27  H10 UNL     1       2.231   0.219   2.522  1.00  0.00     0.047 H 
HETATM   28  H11 UNL     1       3.180   1.810   0.856  1.00  0.00     0.084 H 
HETATM   29  H12 UNL     1       4.620   2.090  -1.131  1.00  0.00     0.083 H 
HETATM   30  H13 UNL     1       5.079   0.162  -2.620  1.00  0.00     0.083 H 
HETATM   31  H14 UNL     1       4.089  -2.055  -2.121  1.00  0.00     0.083 H 
HETATM   32  H15 UNL     1       2.646  -2.355  -0.139  1.00  0.00     0.084 H 
TER      33      UNL     1 
ENDMDL
