REMARK FAKE_HEAD_ATOM=C1_N1
REMARK REAL_HEAD_ATOM=C2_C3
REMARK DUMMY_ATOM=C1_H1_H2_H3_N1_H4
REMARK TORSION=C7_C8_C9_C10
REMARK TORSION=C8_C9_C10_C11
MODEL 0
HETATM    1  C1  UNL     1       6.007  -0.595  -0.653  1.00  0.00    -0.018 C 
HETATM    2  N1  UNL     1       4.585  -0.332  -0.837  1.00  0.00    -0.361 N 
HETATM    3  C2  UNL     1       3.682  -0.275   0.278  1.00  0.00     0.251 C 
HETATM    4  C3  UNL     1       2.267   0.133   0.101  1.00  0.00     0.032 A 
HETATM    5  C4  UNL     1       1.874   0.955  -0.970  1.00  0.00    -0.067 A 
HETATM    6  C5  UNL     1       0.538   1.336  -1.121  1.00  0.00    -0.068 A 
HETATM    7  C6  UNL     1       1.296  -0.277   1.031  1.00  0.00    -0.067 A 
HETATM    8  C7  UNL     1      -0.041   0.103   0.879  1.00  0.00    -0.068 A 
HETATM    9  C8  UNL     1      -0.436   0.900  -0.208  1.00  0.00     0.015 A 
HETATM   10  C9  UNL     1      -1.848   1.326  -0.370  1.00  0.00     0.192 C 
HETATM   11  C10 UNL     1      -2.987   0.470   0.040  1.00  0.00     0.015 A 
HETATM   12  C11 UNL     1      -2.913  -0.932  -0.058  1.00  0.00    -0.069 A 
HETATM   13  C12 UNL     1      -4.002  -1.726   0.315  1.00  0.00    -0.082 A 
HETATM   14  C13 UNL     1      -5.177  -1.131   0.779  1.00  0.00    -0.083 A 
HETATM   15  C14 UNL     1      -5.268   0.260   0.865  1.00  0.00    -0.082 A 
HETATM   16  C15 UNL     1      -4.182   1.059   0.493  1.00  0.00    -0.069 A 
HETATM   17  O1  UNL     1      -2.088   2.457  -0.875  1.00  0.00    -0.287 OA
HETATM   18  O2  UNL     1       4.094  -0.594   1.427  1.00  0.00    -0.268 OA
HETATM   19  H1  UNL     1       6.459   0.203  -0.027  1.00  0.00     0.056 H 
HETATM   20  H2  UNL     1       6.149  -1.580  -0.161  1.00  0.00     0.056 H 
HETATM   21  H3  UNL     1       6.519  -0.610  -1.639  1.00  0.00     0.056 H 
HETATM   22  H4  UNL     1       4.226  -0.232  -1.812  1.00  0.00     0.162 HD
HETATM   23  H5  UNL     1       2.599   1.329  -1.682  1.00  0.00     0.085 H 
HETATM   24  H6  UNL     1       0.264   1.969  -1.956  1.00  0.00     0.085 H 
HETATM   25  H7  UNL     1       1.568  -0.898   1.875  1.00  0.00     0.085 H 
HETATM   26  H8  UNL     1      -0.762  -0.215   1.621  1.00  0.00     0.085 H 
HETATM   27  H9  UNL     1      -2.021  -1.414  -0.437  1.00  0.00     0.085 H 
HETATM   28  H10 UNL     1      -3.936  -2.804   0.239  1.00  0.00     0.083 H 
HETATM   29  H11 UNL     1      -6.019  -1.747   1.067  1.00  0.00     0.083 H 
HETATM   30  H12 UNL     1      -6.181   0.721   1.220  1.00  0.00     0.083 H 
HETATM   31  H13 UNL     1      -4.271   2.136   0.569  1.00  0.00     0.085 H 
TER      32      UNL     1 
ENDMDL
