REMARK FAKE_HEAD_ATOM=C12_N3
REMARK REAL_HEAD_ATOM=C11_C10
REMARK DUMMY_ATOM=C12_H17_H18_H19_N3_H16
REMARK TORSION=C8_C7_C6_N2
REMARK TORSION=C7_C6_N2_C5
MODEL 0
HETATM    1  C1  UNL     1      -5.303   0.871  -0.746  1.00  0.00     0.095 C 
HETATM    2  N1  UNL     1      -4.284  -0.041  -0.204  1.00  0.00     0.087 N 
HETATM    3  C2  UNL     1      -3.979   0.313   1.193  1.00  0.00     0.138 C 
HETATM    4  C3  UNL     1      -2.945  -0.665   1.766  1.00  0.00     0.138 C 
HETATM    5  C4  UNL     1      -3.061   0.023  -1.023  1.00  0.00     0.138 C 
HETATM    6  C5  UNL     1      -1.992  -0.931  -0.465  1.00  0.00     0.138 C 
HETATM    7  N2  UNL     1      -1.703  -0.688   0.967  1.00  0.00     0.096 N 
HETATM    8  C6  UNL     1      -0.859   0.504   1.199  1.00  0.00     0.137 C 
HETATM    9  C7  UNL     1       0.565   0.231   0.791  1.00  0.00    -0.030 A 
HETATM   10  C8  UNL     1       1.122   0.865  -0.330  1.00  0.00    -0.074 A 
HETATM   11  C9  UNL     1       2.438   0.594  -0.714  1.00  0.00    -0.067 A 
HETATM   12  C10 UNL     1       3.224  -0.315   0.019  1.00  0.00     0.032 A 
HETATM   13  C11 UNL     1       4.620  -0.619  -0.379  1.00  0.00     0.251 C 
HETATM   14  N3  UNL     1       5.400   0.321  -1.135  1.00  0.00    -0.361 N 
HETATM   15  C12 UNL     1       6.719  -0.024  -1.651  1.00  0.00    -0.018 C 
HETATM   16  O1  UNL     1       5.136  -1.717  -0.033  1.00  0.00    -0.268 OA
HETATM   17  C13 UNL     1       2.654  -0.960   1.132  1.00  0.00    -0.067 A 
HETATM   18  C14 UNL     1       1.338  -0.687   1.515  1.00  0.00    -0.074 A 
HETATM   19  H1  UNL     1      -5.553   0.587  -1.790  1.00  0.00     0.071 H 
HETATM   20  H2  UNL     1      -6.238   0.795  -0.151  1.00  0.00     0.071 H 
HETATM   21  H3  UNL     1      -4.950   1.927  -0.732  1.00  0.00     0.071 H 
HETATM   22  H4  UNL     1      -3.601   1.358   1.269  1.00  0.00     0.082 H 
HETATM   23  H5  UNL     1      -4.902   0.238   1.809  1.00  0.00     0.082 H 
HETATM   24  H6  UNL     1      -3.385  -1.686   1.778  1.00  0.00     0.082 H 
HETATM   25  H7  UNL     1      -2.729  -0.404   2.825  1.00  0.00     0.082 H 
HETATM   26  H8  UNL     1      -3.293  -0.296  -2.063  1.00  0.00     0.082 H 
HETATM   27  H9  UNL     1      -2.665   1.062  -1.074  1.00  0.00     0.082 H 
HETATM   28  H10 UNL     1      -1.068  -0.849  -1.075  1.00  0.00     0.082 H 
HETATM   29  H11 UNL     1      -2.352  -1.977  -0.583  1.00  0.00     0.082 H 
HETATM   30  H12 UNL     1      -0.844   0.764   2.281  1.00  0.00     0.087 H 
HETATM   31  H13 UNL     1      -1.258   1.396   0.671  1.00  0.00     0.087 H 
HETATM   32  H14 UNL     1       0.534   1.561  -0.915  1.00  0.00     0.084 H 
HETATM   33  H15 UNL     1       2.825   1.078  -1.601  1.00  0.00     0.085 H 
HETATM   34  H16 UNL     1       5.051   1.293  -1.288  1.00  0.00     0.162 HD
HETATM   35  H17 UNL     1       7.393  -0.298  -0.812  1.00  0.00     0.056 H 
HETATM   36  H18 UNL     1       7.153   0.845  -2.190  1.00  0.00     0.056 H 
HETATM   37  H19 UNL     1       6.635  -0.878  -2.356  1.00  0.00     0.056 H 
HETATM   38  H20 UNL     1       3.231  -1.669   1.712  1.00  0.00     0.085 H 
HETATM   39  H21 UNL     1       0.920  -1.193   2.376  1.00  0.00     0.084 H 
TER      40      UNL     1 
ENDMDL
