REMARK FAKE_HEAD_ATOM=C1_N1
REMARK REAL_HEAD_ATOM=C2_C3
REMARK DUMMY_ATOM=C1_H1_H2_H3_N1_H4
REMARK TORSION=O1_C2_C3_C4
REMARK TORSION=C2_C3_C4_C5
MODEL 0
HETATM    1  C1  UNL     1       3.752  -0.588  -1.167  1.00  0.00    -0.018 C 
HETATM    2  N1  UNL     1       2.940  -0.183  -0.027  1.00  0.00    -0.365 N 
HETATM    3  C2  UNL     1       2.005   0.899  -0.113  1.00  0.00     0.221 C 
HETATM    4  C3  UNL     1       1.165   1.262   1.073  1.00  0.00     0.035 C 
HETATM    5  C4  UNL     1       0.016   0.309   1.197  1.00  0.00    -0.022 A 
HETATM    6  C5  UNL     1      -0.024  -0.846   1.973  1.00  0.00    -0.015 A 
HETATM    7  N2  UNL     1      -1.192  -1.501   1.784  1.00  0.00    -0.365 N 
HETATM    8  C6  UNL     1      -1.883  -0.777   0.887  1.00  0.00     0.042 A 
HETATM    9  C7  UNL     1      -3.142  -1.063   0.360  1.00  0.00    -0.056 A 
HETATM   10  C8  UNL     1      -3.675  -0.172  -0.591  1.00  0.00    -0.081 A 
HETATM   11  C9  UNL     1      -2.944   0.969  -0.991  1.00  0.00    -0.082 A 
HETATM   12  C10 UNL     1      -1.675   1.231  -0.443  1.00  0.00    -0.070 A 
HETATM   13  C11 UNL     1      -1.176   0.333   0.500  1.00  0.00    -0.001 A 
HETATM   14  O1  UNL     1       1.857   1.528  -1.196  1.00  0.00    -0.273 OA
HETATM   15  H1  UNL     1       3.094  -0.899  -2.006  1.00  0.00     0.056 H 
HETATM   16  H2  UNL     1       4.401  -1.443  -0.884  1.00  0.00     0.056 H 
HETATM   17  H3  UNL     1       4.394   0.258  -1.492  1.00  0.00     0.056 H 
HETATM   18  H4  UNL     1       3.041  -0.703   0.874  1.00  0.00     0.161 HD
HETATM   19  H5  UNL     1       0.782   2.300   0.968  1.00  0.00     0.054 H 
HETATM   20  H6  UNL     1       1.786   1.224   1.993  1.00  0.00     0.054 H 
HETATM   21  H7  UNL     1       0.764  -1.192   2.629  1.00  0.00     0.112 H 
HETATM   22  H8  UNL     1      -1.486  -2.396   2.234  1.00  0.00     0.165 HD
HETATM   23  H9  UNL     1      -3.692  -1.943   0.668  1.00  0.00     0.086 H 
HETATM   24  H10 UNL     1      -4.650  -0.365  -1.020  1.00  0.00     0.083 H 
HETATM   25  H11 UNL     1      -3.363   1.645  -1.725  1.00  0.00     0.083 H 
HETATM   26  H12 UNL     1      -1.108   2.101  -0.748  1.00  0.00     0.084 H 
TER      27      UNL     1 
ENDMDL
