MODEL 0
REMARK FAKE_HEAD_ATOM=C2_N1
REMARK REAL_HEAD_ATOM=C1_C3
REMARK DUMMY_ATOM=C2_H2_H3_H4_N1_H1
REMARK TORSION=C6_C7_N2_C8
HETATM    1  O1  UNL     1       3.212   1.119  -1.193  1.00  0.00    -0.268 OA
HETATM    2  C1  UNL     1       3.102   0.574  -0.061  1.00  0.00     0.251 C 
HETATM    3  N1  UNL     1       4.272   0.093   0.615  1.00  0.00    -0.361 N 
HETATM    4  C2  UNL     1       5.606   0.266   0.055  1.00  0.00    -0.018 C 
HETATM    5  C3  UNL     1       1.766   0.457   0.572  1.00  0.00     0.040 A 
HETATM    6  C4  UNL     1       1.650   0.743   1.943  1.00  0.00    -0.067 A 
HETATM    7  C5  UNL     1       0.410   0.703   2.577  1.00  0.00    -0.080 A 
HETATM    8  C6  UNL     1      -0.737   0.397   1.850  1.00  0.00    -0.057 A 
HETATM    9  C7  UNL     1      -0.656   0.110   0.482  1.00  0.00     0.037 A 
HETATM   10  N2  UNL     1      -1.873  -0.154  -0.234  1.00  0.00    -0.376 N 
HETATM   11  C8  UNL     1      -2.363   0.782  -1.247  1.00  0.00     0.015 C 
HETATM   12  C9  UNL     1      -3.890   0.859  -1.167  1.00  0.00     0.034 C 
HETATM   13  O2  UNL     1      -4.461  -0.436  -1.223  1.00  0.00    -0.388 OA
HETATM   14  C10 UNL     1      -4.086  -1.179  -0.077  1.00  0.00     0.034 C 
HETATM   15  C11 UNL     1      -2.574  -1.426  -0.058  1.00  0.00     0.015 C 
HETATM   16  C12 UNL     1       0.605   0.097  -0.166  1.00  0.00    -0.020 A 
HETATM   17  C13 UNL     1       0.703  -0.310  -1.618  1.00  0.00    -0.048 C 
HETATM   18  H1  UNL     1       4.174  -0.421   1.520  1.00  0.00     0.162 HD
HETATM   19  H2  UNL     1       5.829   1.348  -0.058  1.00  0.00     0.056 H 
HETATM   20  H3  UNL     1       5.666  -0.231  -0.937  1.00  0.00     0.056 H 
HETATM   21  H4  UNL     1       6.361  -0.188   0.730  1.00  0.00     0.056 H 
HETATM   22  H5  UNL     1       2.519   1.026   2.524  1.00  0.00     0.085 H 
HETATM   23  H6  UNL     1       0.334   0.931   3.632  1.00  0.00     0.083 H 
HETATM   24  H7  UNL     1      -1.698   0.396   2.348  1.00  0.00     0.086 H 
HETATM   25  H8  UNL     1      -1.933   1.795  -1.085  1.00  0.00     0.067 H 
HETATM   26  H9  UNL     1      -2.067   0.426  -2.257  1.00  0.00     0.067 H 
HETATM   27  H10 UNL     1      -4.204   1.397  -0.243  1.00  0.00     0.076 H 
HETATM   28  H11 UNL     1      -4.264   1.448  -2.030  1.00  0.00     0.076 H 
HETATM   29  H12 UNL     1      -4.406  -0.664   0.858  1.00  0.00     0.076 H 
HETATM   30  H13 UNL     1      -4.606  -2.159  -0.104  1.00  0.00     0.076 H 
HETATM   31  H14 UNL     1      -2.298  -2.112  -0.887  1.00  0.00     0.067 H 
HETATM   32  H15 UNL     1      -2.290  -1.903   0.906  1.00  0.00     0.067 H 
HETATM   33  H16 UNL     1      -0.111  -1.010  -1.898  1.00  0.00     0.033 H 
HETATM   34  H17 UNL     1       1.650  -0.853  -1.816  1.00  0.00     0.033 H 
HETATM   35  H18 UNL     1       0.648   0.591  -2.263  1.00  0.00     0.033 H 
TER      36      UNL     1 
ENDMDL
