MODEL 0
REMARK FAKE_HEAD_ATOM=
REMARK REAL_HEAD_ATOM=
REMARK DUMMY_ATOM=
HETATM    1  C1  UNL     1      -2.383   1.717   0.184  1.00  0.00     0.004 C 
HETATM    2  O1  UNL     1      -1.559   0.824  -0.533  1.00  0.00    -0.392 OA
HETATM    3  C2  UNL     1      -1.754  -0.500  -0.074  1.00  0.00     0.034 C 
HETATM    4  C3  UNL     1      -0.893  -0.786   1.127  1.00  0.00    -0.081 C 
HETATM    5  C4  UNL     1       0.447  -0.783   1.114  1.00  0.00    -0.084 C 
HETATM    6  C5  UNL     1       1.257  -0.508  -0.090  1.00  0.00    -0.077 C 
HETATM    7  C6  UNL     1       2.592  -0.503  -0.026  1.00  0.00    -0.009 C 
HETATM    8  C7  UNL     1       3.430  -0.234  -1.205  1.00  0.00     0.198 C 
HETATM    9  O2  UNL     1       2.859   0.028  -2.445  1.00  0.00    -0.645 OA
HETATM   10  O3  UNL     1       4.683  -0.242  -1.091  1.00  0.00    -0.645 OA
HETATM   11  H1  UNL     1      -2.195   1.657   1.279  1.00  0.00     0.066 H 
HETATM   12  H2  UNL     1      -2.149   2.752  -0.140  1.00  0.00     0.066 H 
HETATM   13  H3  UNL     1      -3.457   1.529  -0.036  1.00  0.00     0.066 H 
HETATM   14  H4  UNL     1      -1.478  -1.203  -0.889  1.00  0.00     0.080 H 
HETATM   15  H5  UNL     1      -2.822  -0.717   0.164  1.00  0.00     0.080 H 
HETATM   16  H6  UNL     1      -1.395  -1.015   2.060  1.00  0.00     0.080 H 
HETATM   17  H7  UNL     1       0.959  -1.002   2.044  1.00  0.00     0.083 H 
HETATM   18  H8  UNL     1       0.769  -0.311  -1.035  1.00  0.00     0.083 H 
HETATM   19  H9  UNL     1       3.087  -0.701   0.918  1.00  0.00     0.094 H 
TER      20      UNL     1 
ENDMDL
