MODEL 0
REMARK FAKE_HEAD_ATOM=
REMARK REAL_HEAD_ATOM=
REMARK DUMMY_ATOM=
HETATM    1  C1  UNL     1       3.732  -0.615  -0.274  1.00  0.00     0.009 C 
HETATM    2  O1  UNL     1       2.376  -0.534   0.144  1.00  0.00    -0.368 OA
HETATM    3  C2  UNL     1       1.507   0.422  -0.384  1.00  0.00     0.012 C 
HETATM    4  C3  UNL     1       0.235   0.494   0.010  1.00  0.00    -0.062 C 
HETATM    5  C4  UNL     1      -0.327  -0.424   1.025  1.00  0.00    -0.084 C 
HETATM    6  C5  UNL     1      -1.605  -0.400   1.429  1.00  0.00    -0.093 C 
HETATM    7  C6  UNL     1      -2.651   0.546   0.905  1.00  0.00     0.031 C 
HETATM    8  C7  UNL     1      -3.088   0.156  -0.472  1.00  0.00     0.176 C 
HETATM    9  O2  UNL     1      -2.868   1.013  -1.543  1.00  0.00    -0.648 OA
HETATM   10  O3  UNL     1      -3.664  -0.947  -0.666  1.00  0.00    -0.648 OA
HETATM   11  H1  UNL     1       3.781  -0.819  -1.364  1.00  0.00     0.066 H 
HETATM   12  H2  UNL     1       4.233  -1.440   0.272  1.00  0.00     0.066 H 
HETATM   13  H3  UNL     1       4.256   0.338  -0.048  1.00  0.00     0.066 H 
HETATM   14  H4  UNL     1       1.867   1.122  -1.129  1.00  0.00     0.122 H 
HETATM   15  H5  UNL     1      -0.386   1.258  -0.436  1.00  0.00     0.086 H 
HETATM   16  H6  UNL     1       0.324  -1.161   1.479  1.00  0.00     0.083 H 
HETATM   17  H7  UNL     1      -1.911  -1.109   2.189  1.00  0.00     0.077 H 
HETATM   18  H8  UNL     1      -2.275   1.592   0.921  1.00  0.00     0.055 H 
HETATM   19  H9  UNL     1      -3.537   0.507   1.575  1.00  0.00     0.055 H 
TER      20      UNL     1 
ENDMDL
