MODEL 0
REMARK FAKE_HEAD_ATOM=
REMARK REAL_HEAD_ATOM=
REMARK DUMMY_ATOM=
HETATM    1  C1  UNL     1       3.281  -1.062   0.127  1.00  0.00     0.004 C 
HETATM    2  O1  UNL     1       1.959  -0.779   0.526  1.00  0.00    -0.391 OA
HETATM    3  C2  UNL     1       1.350   0.066  -0.429  1.00  0.00     0.045 C 
HETATM    4  C3  UNL     1      -0.097   0.281  -0.058  1.00  0.00     0.001 A 
HETATM    5  C4  UNL     1      -0.559   1.598   0.129  1.00  0.00    -0.041 A 
HETATM    6  C5  UNL     1      -1.879   1.846   0.522  1.00  0.00     0.066 A 
HETATM    7  O2  UNL     1      -2.332   3.151   0.707  1.00  0.00    -0.361 OA
HETATM    8  C6  UNL     1      -2.751   0.780   0.734  1.00  0.00    -0.049 A 
HETATM    9  C7  UNL     1      -2.314  -0.532   0.549  1.00  0.00    -0.048 A 
HETATM   10  C8  UNL     1      -0.996  -0.802   0.140  1.00  0.00     0.111 A 
HETATM   11  N1  UNL     1      -0.592  -2.171  -0.051  1.00  0.00    -0.115 N 
HETATM   12  O3  UNL     1       0.219  -2.524  -1.105  1.00  0.00    -0.532 OA
HETATM   13  O4  UNL     1      -1.105  -3.076   0.639  1.00  0.00    -0.532 OA
HETATM   14  H1  UNL     1       3.300  -1.619  -0.836  1.00  0.00     0.066 H 
HETATM   15  H2  UNL     1       3.889  -0.133   0.052  1.00  0.00     0.066 H 
HETATM   16  H3  UNL     1       3.751  -1.708   0.897  1.00  0.00     0.066 H 
HETATM   17  H4  UNL     1       1.888   1.041  -0.462  1.00  0.00     0.081 H 
HETATM   18  H5  UNL     1       1.391  -0.370  -1.453  1.00  0.00     0.081 H 
HETATM   19  H6  UNL     1       0.109   2.438  -0.021  1.00  0.00     0.088 H 
HETATM   20  H7  UNL     1      -1.725   3.949   0.563  1.00  0.00     0.217 HD
HETATM   21  H8  UNL     1      -3.773   0.967   1.040  1.00  0.00     0.087 H 
HETATM   22  H9  UNL     1      -3.014  -1.343   0.709  1.00  0.00     0.087 H 
TER      23      UNL     1 
ENDMDL
