MODEL 0
REMARK FAKE_HEAD_ATOM=
REMARK REAL_HEAD_ATOM=
REMARK DUMMY_ATOM=
HETATM    1  C1  UNL     1       3.515   0.075   0.183  1.00  0.00     0.004 C 
HETATM    2  O1  UNL     1       2.156  -0.132   0.497  1.00  0.00    -0.391 OA
HETATM    3  C2  UNL     1       1.383  -0.041  -0.680  1.00  0.00     0.045 C 
HETATM    4  C3  UNL     1      -0.072  -0.207  -0.322  1.00  0.00     0.002 A 
HETATM    5  C4  UNL     1      -0.669  -1.473  -0.462  1.00  0.00    -0.041 A 
HETATM    6  C5  UNL     1      -2.010  -1.671  -0.123  1.00  0.00     0.066 A 
HETATM    7  O2  UNL     1      -2.578  -2.934  -0.279  1.00  0.00    -0.361 OA
HETATM    8  C6  UNL     1      -2.768  -0.605   0.369  1.00  0.00    -0.049 A 
HETATM    9  C7  UNL     1      -2.186   0.654   0.531  1.00  0.00    -0.047 A 
HETATM   10  C8  UNL     1      -0.834   0.866   0.206  1.00  0.00     0.138 A 
HETATM   11  N1  UNL     1      -0.255   2.173   0.378  1.00  0.00    -0.049 N 
HETATM   12  H1  UNL     1       4.110  -0.016   1.115  1.00  0.00     0.066 H 
HETATM   13  H2  UNL     1       3.681   1.098  -0.224  1.00  0.00     0.066 H 
HETATM   14  H3  UNL     1       3.887  -0.693  -0.530  1.00  0.00     0.066 H 
HETATM   15  H4  UNL     1       1.528   0.941  -1.184  1.00  0.00     0.081 H 
HETATM   16  H5  UNL     1       1.682  -0.833  -1.405  1.00  0.00     0.081 H 
HETATM   17  H6  UNL     1      -0.093  -2.310  -0.838  1.00  0.00     0.088 H 
HETATM   18  H7  UNL     1      -3.548  -3.111  -0.043  1.00  0.00     0.217 HD
HETATM   19  H8  UNL     1      -3.808  -0.750   0.629  1.00  0.00     0.087 H 
HETATM   20  H9  UNL     1      -2.792   1.465   0.916  1.00  0.00     0.087 H 
HETATM   21  H10 UNL     1       0.647   2.098   0.901  1.00  0.00     0.281 HD
HETATM   22  H11 UNL     1      -0.889   2.800   0.924  1.00  0.00     0.281 HD
HETATM   23  H12 UNL     1      -0.090   2.602  -0.561  1.00  0.00     0.281 HD
TER      24      UNL     1 
ENDMDL
