MODEL 0
REMARK FAKE_HEAD_ATOM=
REMARK REAL_HEAD_ATOM=
REMARK DUMMY_ATOM=
HETATM    1  C1  UNL     1      -3.577  -0.690   0.406  1.00  0.00     0.004 C 
HETATM    2  O1  UNL     1      -2.241  -0.303   0.635  1.00  0.00    -0.391 OA
HETATM    3  C2  UNL     1      -1.512  -0.399  -0.570  1.00  0.00     0.045 C 
HETATM    4  C3  UNL     1      -0.096   0.043  -0.318  1.00  0.00     0.001 A 
HETATM    5  C4  UNL     1       0.905  -0.914  -0.079  1.00  0.00    -0.040 A 
HETATM    6  C5  UNL     1       2.229  -0.522   0.188  1.00  0.00     0.103 A 
HETATM    7  N1  UNL     1       3.249  -1.510   0.422  1.00  0.00    -0.116 N 
HETATM    8  O2  UNL     1       2.944  -2.852   0.385  1.00  0.00    -0.532 OA
HETATM    9  O3  UNL     1       4.425  -1.167   0.663  1.00  0.00    -0.532 OA
HETATM   10  C6  UNL     1       2.538   0.849   0.226  1.00  0.00    -0.048 A 
HETATM   11  C7  UNL     1       1.544   1.806   0.008  1.00  0.00    -0.048 A 
HETATM   12  C8  UNL     1       0.227   1.412  -0.257  1.00  0.00     0.074 A 
HETATM   13  O4  UNL     1      -0.761   2.375  -0.458  1.00  0.00    -0.360 OA
HETATM   14  H1  UNL     1      -3.639  -1.746   0.063  1.00  0.00     0.066 H 
HETATM   15  H2  UNL     1      -4.136  -0.615   1.362  1.00  0.00     0.066 H 
HETATM   16  H3  UNL     1      -4.072  -0.013  -0.326  1.00  0.00     0.066 H 
HETATM   17  H4  UNL     1      -1.958   0.250  -1.359  1.00  0.00     0.081 H 
HETATM   18  H5  UNL     1      -1.515  -1.447  -0.949  1.00  0.00     0.081 H 
HETATM   19  H6  UNL     1       0.650  -1.966  -0.102  1.00  0.00     0.088 H 
HETATM   20  H7  UNL     1       3.547   1.182   0.429  1.00  0.00     0.087 H 
HETATM   21  H8  UNL     1       1.800   2.857   0.049  1.00  0.00     0.087 H 
HETATM   22  H9  UNL     1      -0.553   3.366  -0.419  1.00  0.00     0.217 HD
TER      23      UNL     1 
ENDMDL
