MODEL 0
REMARK FAKE_HEAD_ATOM=
REMARK REAL_HEAD_ATOM=
REMARK DUMMY_ATOM=
HETATM    1  C1  UNL     1      -3.526  -0.503   0.315  1.00  0.00     0.004 C 
HETATM    2  O1  UNL     1      -2.140  -0.518   0.572  1.00  0.00    -0.391 OA
HETATM    3  C2  UNL     1      -1.435  -0.410  -0.646  1.00  0.00     0.045 C 
HETATM    4  C3  UNL     1       0.043  -0.369  -0.353  1.00  0.00    -0.001 A 
HETATM    5  C4  UNL     1       0.790  -1.556  -0.446  1.00  0.00    -0.070 A 
HETATM    6  C5  UNL     1       2.157  -1.559  -0.163  1.00  0.00    -0.050 A 
HETATM    7  C6  UNL     1       2.798  -0.382   0.224  1.00  0.00     0.067 A 
HETATM    8  O2  UNL     1       4.164  -0.402   0.496  1.00  0.00    -0.361 OA
HETATM    9  C7  UNL     1       2.065   0.805   0.339  1.00  0.00    -0.017 A 
HETATM   10  C8  UNL     1       0.683   0.824   0.071  1.00  0.00     0.141 A 
HETATM   11  N1  UNL     1      -0.051   2.057   0.192  1.00  0.00    -0.049 N 
HETATM   12  H1  UNL     1      -3.827  -1.358  -0.330  1.00  0.00     0.066 H 
HETATM   13  H2  UNL     1      -3.839   0.461  -0.145  1.00  0.00     0.066 H 
HETATM   14  H3  UNL     1      -4.065  -0.605   1.279  1.00  0.00     0.066 H 
HETATM   15  H4  UNL     1      -1.661  -1.280  -1.305  1.00  0.00     0.081 H 
HETATM   16  H5  UNL     1      -1.726   0.510  -1.201  1.00  0.00     0.081 H 
HETATM   17  H6  UNL     1       0.314  -2.483  -0.741  1.00  0.00     0.084 H 
HETATM   18  H7  UNL     1       2.720  -2.481  -0.247  1.00  0.00     0.087 H 
HETATM   19  H8  UNL     1       4.660   0.435   0.780  1.00  0.00     0.217 HD
HETATM   20  H9  UNL     1       2.571   1.712   0.642  1.00  0.00     0.091 H 
HETATM   21  H10 UNL     1      -0.308   2.399  -0.762  1.00  0.00     0.281 HD
HETATM   22  H11 UNL     1       0.520   2.793   0.667  1.00  0.00     0.281 HD
HETATM   23  H12 UNL     1      -0.913   1.904   0.762  1.00  0.00     0.281 HD
TER      24      UNL     1 
ENDMDL
