MODEL 0
REMARK FAKE_HEAD_ATOM=
REMARK REAL_HEAD_ATOM=
REMARK DUMMY_ATOM=
HETATM    1  C1  UNL     1       2.578  -0.078   0.594  1.00  0.00     0.004 C 
HETATM    2  O1  UNL     1       1.902   0.759  -0.320  1.00  0.00    -0.391 OA
HETATM    3  C2  UNL     1       1.045  -0.009  -1.143  1.00  0.00     0.045 C 
HETATM    4  C3  UNL     1      -0.284  -0.256  -0.462  1.00  0.00     0.001 A 
HETATM    5  C4  UNL     1      -0.705  -1.583  -0.276  1.00  0.00    -0.056 A 
HETATM    6  C5  UNL     1      -1.895  -1.849   0.400  1.00  0.00     0.003 A 
HETATM    7  N1  UNL     1      -2.646  -0.828   0.883  1.00  0.00    -0.271 NA
HETATM    8  C6  UNL     1      -2.276   0.469   0.723  1.00  0.00     0.034 A 
HETATM    9  C7  UNL     1      -1.094   0.798   0.037  1.00  0.00     0.128 A 
HETATM   10  N2  UNL     1      -0.739   2.185  -0.116  1.00  0.00    -0.114 N 
HETATM   11  O2  UNL     1      -1.167   3.109   0.810  1.00  0.00    -0.532 OA
HETATM   12  O3  UNL     1      -0.187   2.594  -1.157  1.00  0.00    -0.532 OA
HETATM   13  H1  UNL     1       3.271  -0.768   0.064  1.00  0.00     0.066 H 
HETATM   14  H2  UNL     1       3.187   0.557   1.269  1.00  0.00     0.066 H 
HETATM   15  H3  UNL     1       1.866  -0.653   1.226  1.00  0.00     0.066 H 
HETATM   16  H4  UNL     1       1.525  -0.960  -1.474  1.00  0.00     0.081 H 
HETATM   17  H5  UNL     1       0.862   0.549  -2.084  1.00  0.00     0.081 H 
HETATM   18  H6  UNL     1      -0.111  -2.412  -0.640  1.00  0.00     0.086 H 
HETATM   19  H7  UNL     1      -2.219  -2.871   0.546  1.00  0.00     0.114 H 
HETATM   20  H8  UNL     1      -2.914   1.247   1.120  1.00  0.00     0.118 H 
TER      21      UNL     1 
ENDMDL
