MODEL 0
REMARK FAKE_HEAD_ATOM=
REMARK REAL_HEAD_ATOM=
REMARK DUMMY_ATOM=
HETATM    1  C1  UNL     1       3.491  -1.262  -0.062  1.00  0.00     0.004 C 
HETATM    2  O1  UNL     1       2.199  -0.845  -0.444  1.00  0.00    -0.391 OA
HETATM    3  C2  UNL     1       1.754   0.167   0.434  1.00  0.00     0.045 C 
HETATM    4  C3  UNL     1       0.342   0.548   0.071  1.00  0.00     0.001 A 
HETATM    5  C4  UNL     1       0.103   1.789  -0.543  1.00  0.00    -0.072 A 
HETATM    6  C5  UNL     1      -1.191   2.166  -0.900  1.00  0.00    -0.080 A 
HETATM    7  C6  UNL     1      -2.264   1.310  -0.655  1.00  0.00    -0.047 A 
HETATM    8  C7  UNL     1      -2.052   0.060  -0.050  1.00  0.00     0.163 A 
HETATM    9  N1  UNL     1      -3.158  -0.828   0.188  1.00  0.00    -0.046 N 
HETATM   10  C8  UNL     1      -0.745  -0.330   0.306  1.00  0.00     0.108 A 
HETATM   11  O2  UNL     1      -0.560  -1.589   0.884  1.00  0.00    -0.358 OA
HETATM   12  H1  UNL     1       3.833  -2.044  -0.771  1.00  0.00     0.066 H 
HETATM   13  H2  UNL     1       3.484  -1.711   0.956  1.00  0.00     0.066 H 
HETATM   14  H3  UNL     1       4.218  -0.421  -0.112  1.00  0.00     0.066 H 
HETATM   15  H4  UNL     1       2.420   1.058   0.363  1.00  0.00     0.081 H 
HETATM   16  H5  UNL     1       1.769  -0.175   1.494  1.00  0.00     0.081 H 
HETATM   17  H6  UNL     1       0.920   2.470  -0.747  1.00  0.00     0.084 H 
HETATM   18  H7  UNL     1      -1.364   3.125  -1.370  1.00  0.00     0.083 H 
HETATM   19  H8  UNL     1      -3.261   1.621  -0.941  1.00  0.00     0.087 H 
HETATM   20  H9  UNL     1      -3.193  -1.073   1.204  1.00  0.00     0.281 HD
HETATM   21  H10 UNL     1      -3.028  -1.697  -0.378  1.00  0.00     0.281 HD
HETATM   22  H11 UNL     1      -4.068  -0.386  -0.077  1.00  0.00     0.281 HD
HETATM   23  H12 UNL     1       0.347  -1.954   1.146  1.00  0.00     0.217 HD
TER      24      UNL     1 
ENDMDL
