MODEL 0
REMARK FAKE_HEAD_ATOM=
REMARK REAL_HEAD_ATOM=
REMARK DUMMY_ATOM=
HETATM    1  C1  UNL     1       3.096  -0.627   0.669  1.00  0.00     0.004 C 
HETATM    2  O1  UNL     1       2.768  -0.471  -0.695  1.00  0.00    -0.391 OA
HETATM    3  C2  UNL     1       1.863   0.607  -0.860  1.00  0.00     0.045 C 
HETATM    4  C3  UNL     1       0.425   0.181  -0.629  1.00  0.00    -0.001 A 
HETATM    5  C4  UNL     1       0.044  -1.144  -0.906  1.00  0.00    -0.070 A 
HETATM    6  C5  UNL     1      -1.257  -1.582  -0.659  1.00  0.00    -0.050 A 
HETATM    7  C6  UNL     1      -2.219  -0.703  -0.142  1.00  0.00     0.105 A 
HETATM    8  N1  UNL     1      -3.558  -1.162   0.120  1.00  0.00    -0.116 N 
HETATM    9  O2  UNL     1      -3.910  -2.469  -0.127  1.00  0.00    -0.532 OA
HETATM   10  O3  UNL     1      -4.420  -0.385   0.580  1.00  0.00    -0.532 OA
HETATM   11  C7  UNL     1      -1.858   0.633   0.099  1.00  0.00    -0.018 A 
HETATM   12  C8  UNL     1      -0.556   1.094  -0.164  1.00  0.00     0.113 A 
HETATM   13  N2  UNL     1      -0.262   2.487   0.032  1.00  0.00    -0.115 N 
HETATM   14  O4  UNL     1      -0.887   3.185   1.040  1.00  0.00    -0.532 OA
HETATM   15  O5  UNL     1       0.387   3.121  -0.825  1.00  0.00    -0.532 OA
HETATM   16  H1  UNL     1       2.187  -0.768   1.297  1.00  0.00     0.066 H 
HETATM   17  H2  UNL     1       3.689   0.239   1.036  1.00  0.00     0.066 H 
HETATM   18  H3  UNL     1       3.723  -1.535   0.780  1.00  0.00     0.066 H 
HETATM   19  H4  UNL     1       1.944   0.962  -1.909  1.00  0.00     0.081 H 
HETATM   20  H5  UNL     1       2.144   1.470  -0.215  1.00  0.00     0.081 H 
HETATM   21  H6  UNL     1       0.760  -1.853  -1.303  1.00  0.00     0.084 H 
HETATM   22  H7  UNL     1      -1.509  -2.613  -0.871  1.00  0.00     0.087 H 
HETATM   23  H8  UNL     1      -2.600   1.331   0.467  1.00  0.00     0.091 H 
TER      24      UNL     1 
ENDMDL
