MODEL 0
REMARK FAKE_HEAD_ATOM=
REMARK REAL_HEAD_ATOM=
REMARK DUMMY_ATOM=
HETATM    1  C1  UNL     1      -3.889   0.092   0.525  1.00  0.00     0.004 C 
HETATM    2  O1  UNL     1      -2.508  -0.145   0.680  1.00  0.00    -0.391 OA
HETATM    3  C2  UNL     1      -1.868  -0.025  -0.573  1.00  0.00     0.045 C 
HETATM    4  C3  UNL     1      -0.385  -0.222  -0.384  1.00  0.00    -0.001 A 
HETATM    5  C4  UNL     1       0.173  -1.485  -0.638  1.00  0.00    -0.070 A 
HETATM    6  C5  UNL     1       1.538  -1.711  -0.457  1.00  0.00    -0.049 A 
HETATM    7  C6  UNL     1       2.372  -0.684   0.005  1.00  0.00     0.132 A 
HETATM    8  N1  UNL     1       3.784  -0.903   0.144  1.00  0.00    -0.049 N 
HETATM    9  C7  UNL     1       1.824   0.583   0.258  1.00  0.00    -0.016 A 
HETATM   10  C8  UNL     1       0.447   0.822   0.093  1.00  0.00     0.140 A 
HETATM   11  N2  UNL     1      -0.088   2.131   0.367  1.00  0.00    -0.049 N 
HETATM   12  H1  UNL     1      -4.379  -0.022   1.514  1.00  0.00     0.066 H 
HETATM   13  H2  UNL     1      -4.351  -0.647  -0.167  1.00  0.00     0.066 H 
HETATM   14  H3  UNL     1      -4.082   1.129   0.172  1.00  0.00     0.066 H 
HETATM   15  H4  UNL     1      -2.259  -0.789  -1.284  1.00  0.00     0.081 H 
HETATM   16  H5  UNL     1      -2.051   0.975  -1.027  1.00  0.00     0.081 H 
HETATM   17  H6  UNL     1      -0.450  -2.301  -0.985  1.00  0.00     0.084 H 
HETATM   18  H7  UNL     1       1.948  -2.689  -0.677  1.00  0.00     0.086 H 
HETATM   19  H8  UNL     1       4.255  -0.658  -0.756  1.00  0.00     0.281 HD
HETATM   20  H9  UNL     1       4.171  -0.309   0.913  1.00  0.00     0.281 HD
HETATM   21  H10 UNL     1       3.977  -1.905   0.377  1.00  0.00     0.281 HD
HETATM   22  H11 UNL     1       2.475   1.384   0.589  1.00  0.00     0.090 H 
HETATM   23  H12 UNL     1      -0.931   2.050   0.979  1.00  0.00     0.281 HD
HETATM   24  H13 UNL     1      -0.343   2.593  -0.535  1.00  0.00     0.281 HD
HETATM   25  H14 UNL     1       0.611   2.730   0.864  1.00  0.00     0.281 HD
TER      26      UNL     1 
ENDMDL
