MODEL 0
REMARK FAKE_HEAD_ATOM=
REMARK REAL_HEAD_ATOM=
REMARK DUMMY_ATOM=
HETATM    1  C1  UNL     1      -3.636  -0.259  -0.612  1.00  0.00     0.004 C 
HETATM    2  O1  UNL     1      -2.257  -0.442  -0.838  1.00  0.00    -0.391 OA
HETATM    3  C2  UNL     1      -1.522   0.203   0.183  1.00  0.00     0.045 C 
HETATM    4  C3  UNL     1      -0.036   0.093  -0.080  1.00  0.00    -0.001 A 
HETATM    5  C4  UNL     1       0.432   0.027  -1.408  1.00  0.00    -0.070 A 
HETATM    6  C5  UNL     1       1.793  -0.113  -1.680  1.00  0.00    -0.050 A 
HETATM    7  C6  UNL     1       2.715  -0.173  -0.637  1.00  0.00     0.068 A 
HETATM    8  O2  UNL     1       4.070  -0.324  -0.925  1.00  0.00    -0.361 OA
HETATM    9  C7  UNL     1       2.275  -0.071   0.687  1.00  0.00    -0.018 A 
HETATM   10  C8  UNL     1       0.908   0.090   0.981  1.00  0.00     0.114 A 
HETATM   11  N1  UNL     1       0.505   0.267   2.350  1.00  0.00    -0.115 N 
HETATM   12  O3  UNL     1      -0.429   1.223   2.680  1.00  0.00    -0.532 OA
HETATM   13  O4  UNL     1       1.132  -0.303   3.266  1.00  0.00    -0.532 OA
HETATM   14  H1  UNL     1      -3.912   0.818  -0.659  1.00  0.00     0.066 H 
HETATM   15  H2  UNL     1      -4.198  -0.783  -1.412  1.00  0.00     0.066 H 
HETATM   16  H3  UNL     1      -3.948  -0.698   0.362  1.00  0.00     0.066 H 
HETATM   17  H4  UNL     1      -1.777   1.286   0.234  1.00  0.00     0.081 H 
HETATM   18  H5  UNL     1      -1.757  -0.282   1.157  1.00  0.00     0.081 H 
HETATM   19  H6  UNL     1      -0.259   0.073  -2.241  1.00  0.00     0.084 H 
HETATM   20  H7  UNL     1       2.131  -0.177  -2.707  1.00  0.00     0.087 H 
HETATM   21  H8  UNL     1       4.767  -0.368  -0.191  1.00  0.00     0.217 HD
HETATM   22  H9  UNL     1       3.002  -0.089   1.489  1.00  0.00     0.091 H 
TER      23      UNL     1 
ENDMDL
