MODEL 0
REMARK FAKE_HEAD_ATOM=
REMARK REAL_HEAD_ATOM=
REMARK DUMMY_ATOM=
HETATM    1  C1  UNL     1       3.275   0.159   0.470  1.00  0.00     0.004 C 
HETATM    2  O1  UNL     1       2.651  -0.366  -0.682  1.00  0.00    -0.391 OA
HETATM    3  C2  UNL     1       1.488  -1.092  -0.324  1.00  0.00     0.045 C 
HETATM    4  C3  UNL     1       0.245  -0.220  -0.281  1.00  0.00     0.001 A 
HETATM    5  C4  UNL     1       0.273   1.086  -0.806  1.00  0.00    -0.072 A 
HETATM    6  C5  UNL     1      -0.860   1.893  -0.766  1.00  0.00    -0.080 A 
HETATM    7  C6  UNL     1      -2.043   1.414  -0.211  1.00  0.00    -0.048 A 
HETATM    8  C7  UNL     1      -2.120   0.109   0.301  1.00  0.00     0.136 A 
HETATM    9  N1  UNL     1      -3.367  -0.357   0.858  1.00  0.00    -0.113 N 
HETATM   10  O2  UNL     1      -4.522   0.370   0.678  1.00  0.00    -0.532 OA
HETATM   11  O3  UNL     1      -3.417  -1.389   1.559  1.00  0.00    -0.532 OA
HETATM   12  C8  UNL     1      -0.975  -0.725   0.242  1.00  0.00     0.107 A 
HETATM   13  O4  UNL     1      -1.077  -2.048   0.683  1.00  0.00    -0.358 OA
HETATM   14  H1  UNL     1       3.711  -0.657   1.088  1.00  0.00     0.066 H 
HETATM   15  H2  UNL     1       4.105   0.822   0.152  1.00  0.00     0.066 H 
HETATM   16  H3  UNL     1       2.569   0.769   1.078  1.00  0.00     0.066 H 
HETATM   17  H4  UNL     1       1.327  -1.870  -1.099  1.00  0.00     0.081 H 
HETATM   18  H5  UNL     1       1.619  -1.633   0.643  1.00  0.00     0.081 H 
HETATM   19  H6  UNL     1       1.173   1.493  -1.248  1.00  0.00     0.084 H 
HETATM   20  H7  UNL     1      -0.820   2.899  -1.164  1.00  0.00     0.083 H 
HETATM   21  H8  UNL     1      -2.904   2.070  -0.183  1.00  0.00     0.087 H 
HETATM   22  H9  UNL     1      -0.334  -2.729   0.601  1.00  0.00     0.217 HD
TER      23      UNL     1 
ENDMDL
