MODEL 0
REMARK FAKE_HEAD_ATOM=
REMARK REAL_HEAD_ATOM=
REMARK DUMMY_ATOM=
HETATM    1  C1  UNL     1       2.943  -0.560   1.179  1.00  0.00     0.004 C 
HETATM    2  O1  UNL     1       2.662   0.022  -0.075  1.00  0.00    -0.391 OA
HETATM    3  C2  UNL     1       1.737  -0.776  -0.789  1.00  0.00     0.045 C 
HETATM    4  C3  UNL     1       0.321  -0.399  -0.427  1.00  0.00     0.001 A 
HETATM    5  C4  UNL     1      -0.186   0.842  -0.848  1.00  0.00    -0.039 A 
HETATM    6  C5  UNL     1      -1.488   1.239  -0.504  1.00  0.00     0.130 A 
HETATM    7  N1  UNL     1      -2.013   2.489  -0.977  1.00  0.00    -0.049 N 
HETATM    8  C6  UNL     1      -2.297   0.368   0.241  1.00  0.00    -0.047 A 
HETATM    9  C7  UNL     1      -1.798  -0.864   0.670  1.00  0.00    -0.048 A 
HETATM   10  C8  UNL     1      -0.491  -1.252   0.346  1.00  0.00     0.074 A 
HETATM   11  O2  UNL     1      -0.002  -2.480   0.790  1.00  0.00    -0.360 OA
HETATM   12  H1  UNL     1       3.449  -1.544   1.059  1.00  0.00     0.066 H 
HETATM   13  H2  UNL     1       3.637   0.108   1.730  1.00  0.00     0.066 H 
HETATM   14  H3  UNL     1       2.022  -0.667   1.794  1.00  0.00     0.066 H 
HETATM   15  H4  UNL     1       1.882  -0.577  -1.872  1.00  0.00     0.081 H 
HETATM   16  H5  UNL     1       1.926  -1.868  -0.670  1.00  0.00     0.081 H 
HETATM   17  H6  UNL     1       0.435   1.502  -1.443  1.00  0.00     0.088 H 
HETATM   18  H7  UNL     1      -2.444   2.341  -1.918  1.00  0.00     0.281 HD
HETATM   19  H8  UNL     1      -2.736   2.855  -0.316  1.00  0.00     0.281 HD
HETATM   20  H9  UNL     1      -1.249   3.199  -1.052  1.00  0.00     0.281 HD
HETATM   21  H10 UNL     1      -3.313   0.646   0.492  1.00  0.00     0.087 H 
HETATM   22  H11 UNL     1      -2.431  -1.519   1.255  1.00  0.00     0.087 H 
HETATM   23  H12 UNL     1      -0.569  -3.108   1.348  1.00  0.00     0.217 HD
TER      24      UNL     1 
ENDMDL
