MODEL 0
REMARK FAKE_HEAD_ATOM=
REMARK REAL_HEAD_ATOM=
REMARK DUMMY_ATOM=
HETATM    1  C1  UNL     1       2.336  -0.517   1.123  1.00  0.00     0.004 C 
HETATM    2  O1  UNL     1       2.317  -0.030  -0.201  1.00  0.00    -0.391 OA
HETATM    3  C2  UNL     1       1.194  -0.540  -0.894  1.00  0.00     0.045 C 
HETATM    4  C3  UNL     1      -0.036   0.295  -0.613  1.00  0.00     0.002 A 
HETATM    5  C4  UNL     1      -0.034   1.639  -1.016  1.00  0.00    -0.056 A 
HETATM    6  C5  UNL     1      -1.146   2.442  -0.767  1.00  0.00     0.003 A 
HETATM    7  N1  UNL     1      -2.231   1.925  -0.135  1.00  0.00    -0.271 NA
HETATM    8  C6  UNL     1      -2.272   0.630   0.271  1.00  0.00     0.035 A 
HETATM    9  C7  UNL     1      -1.177  -0.224   0.050  1.00  0.00     0.155 A 
HETATM   10  N2  UNL     1      -1.239  -1.597   0.477  1.00  0.00    -0.047 N 
HETATM   11  H1  UNL     1       3.222  -0.096   1.641  1.00  0.00     0.066 H 
HETATM   12  H2  UNL     1       2.431  -1.626   1.144  1.00  0.00     0.066 H 
HETATM   13  H3  UNL     1       1.434  -0.192   1.686  1.00  0.00     0.066 H 
HETATM   14  H4  UNL     1       1.042  -1.627  -0.710  1.00  0.00     0.081 H 
HETATM   15  H5  UNL     1       1.409  -0.469  -1.981  1.00  0.00     0.081 H 
HETATM   16  H6  UNL     1       0.826   2.062  -1.520  1.00  0.00     0.086 H 
HETATM   17  H7  UNL     1      -1.148   3.478  -1.076  1.00  0.00     0.114 H 
HETATM   18  H8  UNL     1      -3.161   0.266   0.769  1.00  0.00     0.118 H 
HETATM   19  H9  UNL     1      -2.126  -1.795   0.993  1.00  0.00     0.281 HD
HETATM   20  H10 UNL     1      -1.202  -2.222  -0.361  1.00  0.00     0.281 HD
HETATM   21  H11 UNL     1      -0.440  -1.803   1.118  1.00  0.00     0.281 HD
TER      22      UNL     1 
ENDMDL
