REMARK FAKE_HEAD_ATOM=C4_O1
REMARK REAL_HEAD_ATOM=C3_C2
REMARK DUMMY_ATOM=C4_H6_H7_H8_O1
REMARK TORSION=H5_C3_C2_C1
REMARK TORSION=C3_C2_O2_H12
MODEL 0
HETATM    1  C1  UNL     1       1.581  -0.875  -1.101  1.00  0.00    -0.050 C 
HETATM    2  C2  UNL     1       1.283   0.266  -0.119  1.00  0.00     0.057 C 
HETATM    3  C3  UNL     1      -0.238   0.462   0.082  1.00  0.00     0.059 C 
HETATM    4  O1  UNL     1      -0.792  -0.698   0.684  1.00  0.00    -0.389 OA
HETATM    5  C4  UNL     1      -2.031  -1.024   0.095  1.00  0.00     0.005 C 
HETATM    6  C5  UNL     1      -0.511   1.676   0.977  1.00  0.00    -0.050 C 
HETATM    7  O2  UNL     1       1.943   0.049   1.106  1.00  0.00    -0.393 OA
HETATM    8  H1  UNL     1       2.678  -0.970  -1.244  1.00  0.00     0.031 H 
HETATM    9  H2  UNL     1       1.188  -1.840  -0.717  1.00  0.00     0.031 H 
HETATM   10  H3  UNL     1       1.115  -0.663  -2.087  1.00  0.00     0.031 H 
HETATM   11  H4  UNL     1       1.698   1.196  -0.565  1.00  0.00     0.086 H 
HETATM   12  H5  UNL     1      -0.670   0.685  -0.925  1.00  0.00     0.086 H 
HETATM   13  H6  UNL     1      -2.468  -1.885   0.642  1.00  0.00     0.066 H 
HETATM   14  H7  UNL     1      -1.894  -1.331  -0.965  1.00  0.00     0.066 H 
HETATM   15  H8  UNL     1      -2.749  -0.177   0.166  1.00  0.00     0.066 H 
HETATM   16  H9  UNL     1      -0.051   2.589   0.542  1.00  0.00     0.031 H 
HETATM   17  H10 UNL     1      -0.101   1.512   1.996  1.00  0.00     0.031 H 
HETATM   18  H11 UNL     1      -1.605   1.846   1.061  1.00  0.00     0.031 H 
HETATM   19  H12 UNL     1       1.625  -0.817   1.473  1.00  0.00     0.210 HD
TER      20      UNL     1 
ENDMDL
