REMARK FAKE_HEAD_ATOM=C1_O1
REMARK REAL_HEAD_ATOM=C2_C3
REMARK DUMMY_ATOM=C1_H1_H2_H3_O1
REMARK TORSION=H4_C2_C3_H6
MODEL 0
HETATM    1  C1  UNL     1      -4.083   0.197  -0.499  1.00  0.00     0.004 C 
HETATM    2  O1  UNL     1      -2.687   0.002  -0.460  1.00  0.00    -0.393 OA
HETATM    3  C2  UNL     1      -2.250   0.011   0.884  1.00  0.00     0.045 C 
HETATM    4  C3  UNL     1      -0.737  -0.213   0.940  1.00  0.00     0.086 C 
HETATM    5  O2  UNL     1      -0.066   0.792   0.172  1.00  0.00    -0.339 OA
HETATM    6  C4  UNL     1       1.260   0.621  -0.239  1.00  0.00     0.102 A 
HETATM    7  C5  UNL     1       1.995   1.695  -0.749  1.00  0.00    -0.048 A 
HETATM    8  C6  UNL     1       3.331   1.508  -1.125  1.00  0.00    -0.080 A 
HETATM    9  C7  UNL     1       3.928   0.248  -0.992  1.00  0.00    -0.080 A 
HETATM   10  C8  UNL     1       3.188  -0.831  -0.494  1.00  0.00    -0.048 A 
HETATM   11  C9  UNL     1       1.849  -0.647  -0.133  1.00  0.00     0.102 A 
HETATM   12  O3  UNL     1       1.081  -1.718   0.337  1.00  0.00    -0.346 OA
HETATM   13  C10 UNL     1      -0.341  -1.616   0.437  1.00  0.00     0.052 C 
HETATM   14  H1  UNL     1      -4.411   0.194  -1.558  1.00  0.00     0.066 H 
HETATM   15  H2  UNL     1      -4.365   1.181  -0.062  1.00  0.00     0.066 H 
HETATM   16  H3  UNL     1      -4.619  -0.628   0.021  1.00  0.00     0.066 H 
HETATM   17  H4  UNL     1      -2.751  -0.792   1.472  1.00  0.00     0.078 H 
HETATM   18  H5  UNL     1      -2.470   0.995   1.358  1.00  0.00     0.078 H 
HETATM   19  H6  UNL     1      -0.407  -0.122   1.999  1.00  0.00     0.090 H 
HETATM   20  H7  UNL     1       1.539   2.672  -0.842  1.00  0.00     0.087 H 
HETATM   21  H8  UNL     1       3.904   2.339  -1.513  1.00  0.00     0.083 H 
HETATM   22  H9  UNL     1       4.962   0.107  -1.279  1.00  0.00     0.083 H 
HETATM   23  H10 UNL     1       3.647  -1.806  -0.403  1.00  0.00     0.087 H 
HETATM   24  H11 UNL     1      -0.779  -1.797  -0.568  1.00  0.00     0.079 H 
HETATM   25  H12 UNL     1      -0.717  -2.396   1.133  1.00  0.00     0.079 H 
TER      26      UNL     1 
ENDMDL
