REMARK FAKE_HEAD_ATOM=C5_O1
REMARK REAL_HEAD_ATOM=C4_C3
REMARK DUMMY_ATOM=C5_H10_H11_H9_O1
REMARK TORSION=H7_C4_C3_C2
REMARK TORSION=C4_C3_C2_C1
REMARK TORSION=C3_C2_C1_CL1
MODEL 0
HETATM    1 CL1  UNL     1       3.889   0.653   0.718  1.00  0.00    -0.130 Cl
HETATM    2  C1  UNL     1       2.581   0.365  -0.457  1.00  0.00     0.003 C 
HETATM    3  C2  UNL     1       1.333  -0.145   0.262  1.00  0.00    -0.051 C 
HETATM    4  C3  UNL     1       0.190  -0.398  -0.731  1.00  0.00    -0.044 C 
HETATM    5  C4  UNL     1      -1.060  -0.948  -0.033  1.00  0.00     0.019 C 
HETATM    6  O1  UNL     1      -1.545  -0.033   0.934  1.00  0.00    -0.396 OA
HETATM    7  C5  UNL     1      -2.567   0.769   0.385  1.00  0.00     0.004 C 
HETATM    8  H1  UNL     1       2.358   1.319  -0.981  1.00  0.00     0.056 H 
HETATM    9  H2  UNL     1       2.929  -0.384  -1.199  1.00  0.00     0.056 H 
HETATM   10  H3  UNL     1       1.015   0.610   1.013  1.00  0.00     0.034 H 
HETATM   11  H4  UNL     1       1.580  -1.091   0.793  1.00  0.00     0.034 H 
HETATM   12  H5  UNL     1      -0.063   0.545  -1.260  1.00  0.00     0.036 H 
HETATM   13  H6  UNL     1       0.522  -1.138  -1.491  1.00  0.00     0.036 H 
HETATM   14  H7  UNL     1      -0.791  -1.891   0.489  1.00  0.00     0.074 H 
HETATM   15  H8  UNL     1      -1.822  -1.231  -0.798  1.00  0.00     0.074 H 
HETATM   16  H9  UNL     1      -2.221   1.309  -0.524  1.00  0.00     0.066 H 
HETATM   17  H10 UNL     1      -2.862   1.530   1.136  1.00  0.00     0.066 H 
HETATM   18  H11 UNL     1      -3.467   0.157   0.153  1.00  0.00     0.066 H 
TER      19      UNL     1 
ENDMDL
