REMARK FAKE_HEAD_ATOM=C5_O2
REMARK REAL_HEAD_ATOM=C2_C3
REMARK DUMMY_ATOM=C5_H10_H8_H9_O2
REMARK TORSION=C1_C2_C3_C4
REMARK TORSION=C2_C3_C4_O1
MODEL 0
HETATM    1  C1  UNL     1      -0.259  -1.640  -0.571  1.00  0.00    -0.052 C 
HETATM    2  C2  UNL     1       0.134  -0.207  -0.200  1.00  0.00     0.040 C 
HETATM    3  C3  UNL     1      -0.805   0.359   0.884  1.00  0.00     0.007 C 
HETATM    4  C4  UNL     1      -2.208   0.541   0.381  1.00  0.00     0.090 C 
HETATM    5  O1  UNL     1      -2.450   1.347  -0.503  1.00  0.00    -0.307 OA
HETATM    6  O2  UNL     1       1.461  -0.232   0.302  1.00  0.00    -0.391 OA
HETATM    7  C5  UNL     1       2.190   0.886  -0.153  1.00  0.00     0.004 C 
HETATM    8  H1  UNL     1      -0.224  -2.298   0.323  1.00  0.00     0.030 H 
HETATM    9  H2  UNL     1      -1.281  -1.667  -1.005  1.00  0.00     0.030 H 
HETATM   10  H3  UNL     1       0.449  -2.035  -1.330  1.00  0.00     0.030 H 
HETATM   11  H4  UNL     1       0.034   0.406  -1.130  1.00  0.00     0.083 H 
HETATM   12  H5  UNL     1      -0.816  -0.319   1.764  1.00  0.00     0.047 H 
HETATM   13  H6  UNL     1      -0.429   1.346   1.228  1.00  0.00     0.047 H 
HETATM   14  H7  UNL     1      -3.017  -0.039   0.813  1.00  0.00     0.143 H 
HETATM   15  H8  UNL     1       2.350   0.830  -1.253  1.00  0.00     0.066 H 
HETATM   16  H9  UNL     1       1.686   1.841   0.116  1.00  0.00     0.066 H 
HETATM   17  H10 UNL     1       3.187   0.882   0.334  1.00  0.00     0.066 H 
TER      18      UNL     1 
ENDMDL
