REMARK FAKE_HEAD_ATOM=C24_O1
REMARK REAL_HEAD_ATOM=C23_C22
REMARK DUMMY_ATOM=C24_H48_H49_H50_O1
REMARK TORSION=H46_C23_C22_C21
REMARK TORSION=C23_C22_C21_C20
REMARK TORSION=C22_C21_C20_C19
REMARK TORSION=C21_C20_C19_C18
REMARK TORSION=C20_C19_C18_C17
REMARK TORSION=C19_C18_C17_C16
REMARK TORSION=C18_C17_C16_C15
REMARK TORSION=C17_C16_C15_C14
REMARK TORSION=C16_C15_C14_C13
REMARK TORSION=C15_C14_C13_C12
REMARK TORSION=C14_C13_C12_C11
REMARK TORSION=C13_C12_C11_C10
REMARK TORSION=C12_C11_C10_C9
REMARK TORSION=C11_C10_C9_C8
REMARK TORSION=C10_C9_C8_C7
REMARK TORSION=C9_C8_C7_C6
REMARK TORSION=C8_C7_C6_C5
REMARK TORSION=C7_C6_C5_C4
REMARK TORSION=C6_C5_C4_C3
REMARK TORSION=C5_C4_C3_C2
REMARK TORSION=C4_C3_C2_C1
MODEL 0
HETATM    1  C1  UNL     1      -7.239   0.894  -4.034  1.00  0.00    -0.077 C 
HETATM    2  C2  UNL     1      -7.418   1.537  -2.659  1.00  0.00    -0.069 C 
HETATM    3  C3  UNL     1      -6.242   1.256  -1.711  1.00  0.00    -0.065 C 
HETATM    4  C4  UNL     1      -6.219  -0.202  -1.218  1.00  0.00    -0.065 C 
HETATM    5  C5  UNL     1      -5.051  -0.477  -0.257  1.00  0.00    -0.065 C 
HETATM    6  C6  UNL     1      -5.299   0.087   1.154  1.00  0.00    -0.065 C 
HETATM    7  C7  UNL     1      -4.158  -0.260   2.133  1.00  0.00    -0.065 C 
HETATM    8  C8  UNL     1      -3.198   0.914   2.408  1.00  0.00    -0.065 C 
HETATM    9  C9  UNL     1      -2.368   1.371   1.196  1.00  0.00    -0.065 C 
HETATM   10  C10 UNL     1      -1.402   0.310   0.634  1.00  0.00    -0.065 C 
HETATM   11  C11 UNL     1      -0.260  -0.071   1.602  1.00  0.00    -0.065 C 
HETATM   12  C12 UNL     1      -0.467  -1.411   2.340  1.00  0.00    -0.065 C 
HETATM   13  C13 UNL     1      -0.525  -2.667   1.443  1.00  0.00    -0.065 C 
HETATM   14  C14 UNL     1       0.639  -2.825   0.451  1.00  0.00    -0.065 C 
HETATM   15  C15 UNL     1       2.004  -2.939   1.145  1.00  0.00    -0.065 C 
HETATM   16  C16 UNL     1       3.122  -3.161   0.116  1.00  0.00    -0.065 C 
HETATM   17  C17 UNL     1       4.513  -3.276   0.762  1.00  0.00    -0.065 C 
HETATM   18  C18 UNL     1       5.041  -1.977   1.404  1.00  0.00    -0.065 C 
HETATM   19  C19 UNL     1       5.261  -0.828   0.397  1.00  0.00    -0.065 C 
HETATM   20  C20 UNL     1       4.146   0.231   0.470  1.00  0.00    -0.065 C 
HETATM   21  C21 UNL     1       4.255   1.286  -0.641  1.00  0.00    -0.063 C 
HETATM   22  C22 UNL     1       5.455   2.226  -0.450  1.00  0.00    -0.045 C 
HETATM   23  C23 UNL     1       5.452   3.345  -1.497  1.00  0.00     0.019 C 
HETATM   24  O1  UNL     1       6.530   4.232  -1.264  1.00  0.00    -0.396 OA
HETATM   25  C24 UNL     1       7.622   3.910  -2.097  1.00  0.00     0.004 C 
HETATM   26  H1  UNL     1      -7.291  -0.212  -3.963  1.00  0.00     0.027 H 
HETATM   27  H2  UNL     1      -8.053   1.234  -4.709  1.00  0.00     0.027 H 
HETATM   28  H3  UNL     1      -6.265   1.192  -4.479  1.00  0.00     0.027 H 
HETATM   29  H4  UNL     1      -7.500   2.637  -2.799  1.00  0.00     0.032 H 
HETATM   30  H5  UNL     1      -8.370   1.186  -2.204  1.00  0.00     0.032 H 
HETATM   31  H6  UNL     1      -6.345   1.937  -0.840  1.00  0.00     0.033 H 
HETATM   32  H7  UNL     1      -5.284   1.502  -2.218  1.00  0.00     0.033 H 
HETATM   33  H8  UNL     1      -6.099  -0.877  -2.091  1.00  0.00     0.033 H 
HETATM   34  H9  UNL     1      -7.183  -0.455  -0.726  1.00  0.00     0.033 H 
HETATM   35  H10 UNL     1      -4.924  -1.579  -0.178  1.00  0.00     0.033 H 
HETATM   36  H11 UNL     1      -4.115  -0.067  -0.687  1.00  0.00     0.033 H 
HETATM   37  H12 UNL     1      -5.452   1.185   1.115  1.00  0.00     0.033 H 
HETATM   38  H13 UNL     1      -6.242  -0.358   1.542  1.00  0.00     0.033 H 
HETATM   39  H14 UNL     1      -4.617  -0.534   3.108  1.00  0.00     0.033 H 
HETATM   40  H15 UNL     1      -3.598  -1.160   1.803  1.00  0.00     0.033 H 
HETATM   41  H16 UNL     1      -2.516   0.642   3.240  1.00  0.00     0.033 H 
HETATM   42  H17 UNL     1      -3.791   1.781   2.772  1.00  0.00     0.033 H 
HETATM   43  H18 UNL     1      -3.051   1.708   0.388  1.00  0.00     0.033 H 
HETATM   44  H19 UNL     1      -1.779   2.267   1.492  1.00  0.00     0.033 H 
HETATM   45  H20 UNL     1      -1.963  -0.576   0.281  1.00  0.00     0.033 H 
HETATM   46  H21 UNL     1      -0.939   0.747  -0.277  1.00  0.00     0.033 H 
HETATM   47  H22 UNL     1       0.698  -0.104   1.044  1.00  0.00     0.033 H 
HETATM   48  H23 UNL     1      -0.124   0.729   2.362  1.00  0.00     0.033 H 
HETATM   49  H24 UNL     1       0.357  -1.534   3.075  1.00  0.00     0.033 H 
HETATM   50  H25 UNL     1      -1.400  -1.367   2.936  1.00  0.00     0.033 H 
HETATM   51  H26 UNL     1      -0.553  -3.562   2.103  1.00  0.00     0.033 H 
HETATM   52  H27 UNL     1      -1.479  -2.678   0.876  1.00  0.00     0.033 H 
HETATM   53  H28 UNL     1       0.460  -3.752  -0.137  1.00  0.00     0.033 H 
HETATM   54  H29 UNL     1       0.643  -1.981  -0.271  1.00  0.00     0.033 H 
HETATM   55  H30 UNL     1       2.202  -2.008   1.712  1.00  0.00     0.033 H 
HETATM   56  H31 UNL     1       1.986  -3.790   1.860  1.00  0.00     0.033 H 
HETATM   57  H32 UNL     1       2.919  -4.112  -0.423  1.00  0.00     0.033 H 
HETATM   58  H33 UNL     1       3.118  -2.353  -0.645  1.00  0.00     0.033 H 
HETATM   59  H34 UNL     1       4.487  -4.072   1.538  1.00  0.00     0.033 H 
HETATM   60  H35 UNL     1       5.237  -3.609  -0.014  1.00  0.00     0.033 H 
HETATM   61  H36 UNL     1       4.391  -1.661   2.247  1.00  0.00     0.033 H 
HETATM   62  H37 UNL     1       6.024  -2.223   1.862  1.00  0.00     0.033 H 
HETATM   63  H38 UNL     1       5.349  -1.224  -0.638  1.00  0.00     0.033 H 
HETATM   64  H39 UNL     1       6.227  -0.337   0.641  1.00  0.00     0.033 H 
HETATM   65  H40 UNL     1       3.158  -0.261   0.367  1.00  0.00     0.033 H 
HETATM   66  H41 UNL     1       4.164   0.729   1.464  1.00  0.00     0.033 H 
HETATM   67  H42 UNL     1       3.321   1.890  -0.632  1.00  0.00     0.033 H 
HETATM   68  H43 UNL     1       4.321   0.784  -1.632  1.00  0.00     0.033 H 
HETATM   69  H44 UNL     1       6.399   1.650  -0.544  1.00  0.00     0.036 H 
HETATM   70  H45 UNL     1       5.417   2.680   0.564  1.00  0.00     0.036 H 
HETATM   71  H46 UNL     1       5.441   2.913  -2.527  1.00  0.00     0.074 H 
HETATM   72  H47 UNL     1       4.510   3.926  -1.391  1.00  0.00     0.074 H 
HETATM   73  H48 UNL     1       7.374   4.102  -3.164  1.00  0.00     0.066 H 
HETATM   74  H49 UNL     1       7.945   2.854  -1.959  1.00  0.00     0.066 H 
HETATM   75  H50 UNL     1       8.478   4.562  -1.828  1.00  0.00     0.066 H 
TER      76      UNL     1 
ENDMDL
