REMARK FAKE_HEAD_ATOM=C6_O1
REMARK REAL_HEAD_ATOM=C5_C4
REMARK DUMMY_ATOM=C6_H11_H12_H13_O1
REMARK TORSION=H9_C5_C4_C3
REMARK TORSION=C5_C4_C3_C2
REMARK TORSION=C4_C3_C2_C1
MODEL 0
HETATM    1  C1  UNL     1      -1.106  -1.484   0.284  1.00  0.00    -0.073 C 
HETATM    2  C2  UNL     1      -1.477   0.005   0.204  1.00  0.00    -0.061 C 
HETATM    3  C3  UNL     1      -0.670   0.731  -0.908  1.00  0.00    -0.060 C 
HETATM    4  C4  UNL     1       0.502   1.574  -0.370  1.00  0.00    -0.045 C 
HETATM    5  C5  UNL     1       1.622   0.746   0.266  1.00  0.00     0.019 C 
HETATM    6  O1  UNL     1       2.124  -0.184  -0.672  1.00  0.00    -0.396 OA
HETATM    7  C6  UNL     1       3.122  -0.970  -0.062  1.00  0.00     0.004 C 
HETATM    8  C7  UNL     1      -2.987   0.145  -0.034  1.00  0.00    -0.073 C 
HETATM    9  H1  UNL     1      -0.021  -1.614   0.464  1.00  0.00     0.028 H 
HETATM   10  H2  UNL     1      -1.371  -2.004  -0.662  1.00  0.00     0.028 H 
HETATM   11  H3  UNL     1      -1.652  -1.969   1.121  1.00  0.00     0.028 H 
HETATM   12  H4  UNL     1      -1.261   0.468   1.193  1.00  0.00     0.038 H 
HETATM   13  H5  UNL     1      -1.333   1.434  -1.460  1.00  0.00     0.033 H 
HETATM   14  H6  UNL     1      -0.301   0.011  -1.670  1.00  0.00     0.033 H 
HETATM   15  H7  UNL     1       0.933   2.156  -1.214  1.00  0.00     0.036 H 
HETATM   16  H8  UNL     1       0.122   2.307   0.374  1.00  0.00     0.036 H 
HETATM   17  H9  UNL     1       2.428   1.449   0.578  1.00  0.00     0.074 H 
HETATM   18  H10 UNL     1       1.231   0.239   1.176  1.00  0.00     0.074 H 
HETATM   19  H11 UNL     1       3.973  -0.343   0.287  1.00  0.00     0.066 H 
HETATM   20  H12 UNL     1       3.518  -1.683  -0.814  1.00  0.00     0.066 H 
HETATM   21  H13 UNL     1       2.706  -1.567   0.780  1.00  0.00     0.066 H 
HETATM   22  H14 UNL     1      -3.554  -0.373   0.769  1.00  0.00     0.028 H 
HETATM   23  H15 UNL     1      -3.278   1.217  -0.020  1.00  0.00     0.028 H 
HETATM   24  H16 UNL     1      -3.271  -0.292  -1.015  1.00  0.00     0.028 H 
TER      25      UNL     1 
ENDMDL
