REMARK FAKE_HEAD_ATOM=C25_O1
REMARK REAL_HEAD_ATOM=C24_C23
REMARK DUMMY_ATOM=C25_H50_H51_H52_O1
REMARK TORSION=H48_C24_C23_C22
REMARK TORSION=C24_C23_C22_C21
REMARK TORSION=C23_C22_C21_C20
REMARK TORSION=C22_C21_C20_C19
REMARK TORSION=C21_C20_C19_C18
REMARK TORSION=C20_C19_C18_C17
REMARK TORSION=C19_C18_C17_C16
REMARK TORSION=C18_C17_C16_C15
REMARK TORSION=C17_C16_C15_C14
REMARK TORSION=C16_C15_C14_C13
REMARK TORSION=C15_C14_C13_C12
REMARK TORSION=C14_C13_C12_C11
REMARK TORSION=C13_C12_C11_C10
REMARK TORSION=C12_C11_C10_C9
REMARK TORSION=C11_C10_C9_C8
REMARK TORSION=C10_C9_C8_C7
REMARK TORSION=C9_C8_C7_C6
REMARK TORSION=C8_C7_C6_C5
REMARK TORSION=C7_C6_C5_C4
REMARK TORSION=C6_C5_C4_C3
REMARK TORSION=C5_C4_C3_C2
REMARK TORSION=C4_C3_C2_C1
MODEL 0
HETATM    1  C1  UNL     1      -9.420  -0.492  -3.557  1.00  0.00    -0.077 C 
HETATM    2  C2  UNL     1      -9.261   0.941  -3.051  1.00  0.00    -0.069 C 
HETATM    3  C3  UNL     1      -8.180   1.070  -1.966  1.00  0.00    -0.065 C 
HETATM    4  C4  UNL     1      -8.611   0.449  -0.626  1.00  0.00    -0.065 C 
HETATM    5  C5  UNL     1      -7.583   0.697   0.498  1.00  0.00    -0.065 C 
HETATM    6  C6  UNL     1      -6.700  -0.526   0.811  1.00  0.00    -0.065 C 
HETATM    7  C7  UNL     1      -5.716  -0.918  -0.307  1.00  0.00    -0.065 C 
HETATM    8  C8  UNL     1      -4.682   0.166  -0.679  1.00  0.00    -0.065 C 
HETATM    9  C9  UNL     1      -3.813   0.671   0.486  1.00  0.00    -0.065 C 
HETATM   10  C10 UNL     1      -2.957  -0.440   1.119  1.00  0.00    -0.065 C 
HETATM   11  C11 UNL     1      -2.009   0.094   2.205  1.00  0.00    -0.065 C 
HETATM   12  C12 UNL     1      -0.751   0.756   1.616  1.00  0.00    -0.065 C 
HETATM   13  C13 UNL     1       0.156   1.378   2.693  1.00  0.00    -0.065 C 
HETATM   14  C14 UNL     1       0.726   0.384   3.725  1.00  0.00    -0.065 C 
HETATM   15  C15 UNL     1       1.509  -0.800   3.129  1.00  0.00    -0.065 C 
HETATM   16  C16 UNL     1       2.736  -0.356   2.320  1.00  0.00    -0.065 C 
HETATM   17  C17 UNL     1       3.575  -1.568   1.888  1.00  0.00    -0.065 C 
HETATM   18  C18 UNL     1       4.728  -1.184   0.948  1.00  0.00    -0.065 C 
HETATM   19  C19 UNL     1       5.826  -0.373   1.659  1.00  0.00    -0.065 C 
HETATM   20  C20 UNL     1       7.089  -0.214   0.799  1.00  0.00    -0.065 C 
HETATM   21  C21 UNL     1       6.856   0.680  -0.431  1.00  0.00    -0.065 C 
HETATM   22  C22 UNL     1       8.164   1.064  -1.146  1.00  0.00    -0.063 C 
HETATM   23  C23 UNL     1       8.967  -0.126  -1.707  1.00  0.00    -0.045 C 
HETATM   24  C24 UNL     1       8.196  -0.970  -2.735  1.00  0.00     0.019 C 
HETATM   25  O1  UNL     1       7.626  -0.158  -3.745  1.00  0.00    -0.396 OA
HETATM   26  C25 UNL     1       8.498  -0.058  -4.849  1.00  0.00     0.004 C 
HETATM   27  H1  UNL     1      -9.837  -1.147  -2.764  1.00  0.00     0.027 H 
HETATM   28  H2  UNL     1      -8.443  -0.897  -3.895  1.00  0.00     0.027 H 
HETATM   29  H3  UNL     1     -10.123  -0.503  -4.417  1.00  0.00     0.027 H 
HETATM   30  H4  UNL     1     -10.236   1.313  -2.668  1.00  0.00     0.032 H 
HETATM   31  H5  UNL     1      -8.973   1.583  -3.911  1.00  0.00     0.032 H 
HETATM   32  H6  UNL     1      -7.240   0.607  -2.329  1.00  0.00     0.033 H 
HETATM   33  H7  UNL     1      -7.981   2.153  -1.811  1.00  0.00     0.033 H 
HETATM   34  H8  UNL     1      -9.577   0.913  -0.325  1.00  0.00     0.033 H 
HETATM   35  H9  UNL     1      -8.797  -0.639  -0.747  1.00  0.00     0.033 H 
HETATM   36  H10 UNL     1      -8.147   0.931   1.428  1.00  0.00     0.033 H 
HETATM   37  H11 UNL     1      -6.958   1.592   0.294  1.00  0.00     0.033 H 
HETATM   38  H12 UNL     1      -6.138  -0.336   1.749  1.00  0.00     0.033 H 
HETATM   39  H13 UNL     1      -7.356  -1.398   1.023  1.00  0.00     0.033 H 
HETATM   40  H14 UNL     1      -5.180  -1.840   0.002  1.00  0.00     0.033 H 
HETATM   41  H15 UNL     1      -6.288  -1.197  -1.216  1.00  0.00     0.033 H 
HETATM   42  H16 UNL     1      -4.016  -0.246  -1.468  1.00  0.00     0.033 H 
HETATM   43  H17 UNL     1      -5.201   1.035  -1.133  1.00  0.00     0.033 H 
HETATM   44  H18 UNL     1      -4.449   1.151   1.260  1.00  0.00     0.033 H 
HETATM   45  H19 UNL     1      -3.150   1.463   0.080  1.00  0.00     0.033 H 
HETATM   46  H20 UNL     1      -2.375  -0.971   0.334  1.00  0.00     0.033 H 
HETATM   47  H21 UNL     1      -3.631  -1.181   1.599  1.00  0.00     0.033 H 
HETATM   48  H22 UNL     1      -2.549   0.812   2.862  1.00  0.00     0.033 H 
HETATM   49  H23 UNL     1      -1.699  -0.769   2.832  1.00  0.00     0.033 H 
HETATM   50  H24 UNL     1      -0.181   0.020   1.011  1.00  0.00     0.033 H 
HETATM   51  H25 UNL     1      -1.051   1.573   0.928  1.00  0.00     0.033 H 
HETATM   52  H26 UNL     1      -0.422   2.156   3.239  1.00  0.00     0.033 H 
HETATM   53  H27 UNL     1       0.994   1.907   2.192  1.00  0.00     0.033 H 
HETATM   54  H28 UNL     1       1.396   0.944   4.414  1.00  0.00     0.033 H 
HETATM   55  H29 UNL     1      -0.101  -0.013   4.351  1.00  0.00     0.033 H 
HETATM   56  H30 UNL     1       1.848  -1.438   3.974  1.00  0.00     0.033 H 
HETATM   57  H31 UNL     1       0.841  -1.424   2.499  1.00  0.00     0.033 H 
HETATM   58  H32 UNL     1       2.405   0.194   1.414  1.00  0.00     0.033 H 
HETATM   59  H33 UNL     1       3.355   0.322   2.946  1.00  0.00     0.033 H 
HETATM   60  H34 UNL     1       2.918  -2.286   1.349  1.00  0.00     0.033 H 
HETATM   61  H35 UNL     1       3.978  -2.090   2.784  1.00  0.00     0.033 H 
HETATM   62  H36 UNL     1       4.324  -0.610   0.087  1.00  0.00     0.033 H 
HETATM   63  H37 UNL     1       5.172  -2.123   0.550  1.00  0.00     0.033 H 
HETATM   64  H38 UNL     1       5.442   0.632   1.936  1.00  0.00     0.033 H 
HETATM   65  H39 UNL     1       6.114  -0.896   2.597  1.00  0.00     0.033 H 
HETATM   66  H40 UNL     1       7.444  -1.218   0.482  1.00  0.00     0.033 H 
HETATM   67  H41 UNL     1       7.881   0.242   1.433  1.00  0.00     0.033 H 
HETATM   68  H42 UNL     1       6.170   0.182  -1.147  1.00  0.00     0.033 H 
HETATM   69  H43 UNL     1       6.362   1.622  -0.105  1.00  0.00     0.033 H 
HETATM   70  H44 UNL     1       8.812   1.623  -0.436  1.00  0.00     0.033 H 
HETATM   71  H45 UNL     1       7.923   1.763  -1.976  1.00  0.00     0.033 H 
HETATM   72  H46 UNL     1       9.307  -0.780  -0.877  1.00  0.00     0.036 H 
HETATM   73  H47 UNL     1       9.885   0.273  -2.188  1.00  0.00     0.036 H 
HETATM   74  H48 UNL     1       8.864  -1.769  -3.136  1.00  0.00     0.074 H 
HETATM   75  H49 UNL     1       7.376  -1.508  -2.217  1.00  0.00     0.074 H 
HETATM   76  H50 UNL     1       8.057   0.645  -5.585  1.00  0.00     0.066 H 
HETATM   77  H51 UNL     1       9.491   0.345  -4.552  1.00  0.00     0.066 H 
HETATM   78  H52 UNL     1       8.613  -1.044  -5.352  1.00  0.00     0.066 H 
TER      79      UNL     1 
ENDMDL
