REMARK FAKE_HEAD_ATOM=C6_O1
REMARK REAL_HEAD_ATOM=C5_C4
REMARK DUMMY_ATOM=C6_H10_H11_H12_O1
REMARK TORSION=H9_C5_C4_C3
REMARK TORSION=C5_C4_C3_C2
REMARK TORSION=C4_C3_C2_C1
REMARK TORSION=C3_C2_O2_H16
MODEL 0
HETATM    1  C1  UNL     1       2.879   1.323   0.376  1.00  0.00    -0.052 C 
HETATM    2  C2  UNL     1       1.589   0.901  -0.327  1.00  0.00     0.032 C 
HETATM    3  C3  UNL     1       1.318  -0.598  -0.090  1.00  0.00    -0.039 C 
HETATM    4  C4  UNL     1       0.040  -1.118  -0.776  1.00  0.00    -0.039 C 
HETATM    5  C5  UNL     1      -1.256  -0.524  -0.193  1.00  0.00     0.034 C 
HETATM    6  O1  UNL     1      -1.333  -0.840   1.188  1.00  0.00    -0.391 OA
HETATM    7  C6  UNL     1      -1.812   0.262   1.926  1.00  0.00     0.004 C 
HETATM    8  C7  UNL     1      -2.471  -1.120  -0.911  1.00  0.00    -0.052 C 
HETATM    9  O2  UNL     1       1.718   1.163  -1.701  1.00  0.00    -0.396 OA
HETATM   10  H1  UNL     1       2.799   1.145   1.469  1.00  0.00     0.030 H 
HETATM   11  H2  UNL     1       3.745   0.752  -0.023  1.00  0.00     0.030 H 
HETATM   12  H3  UNL     1       3.061   2.406   0.209  1.00  0.00     0.030 H 
HETATM   13  H4  UNL     1       0.767   1.510   0.116  1.00  0.00     0.082 H 
HETATM   14  H5  UNL     1       1.258  -0.799   1.002  1.00  0.00     0.036 H 
HETATM   15  H6  UNL     1       2.179  -1.184  -0.483  1.00  0.00     0.036 H 
HETATM   16  H7  UNL     1       0.014  -2.224  -0.653  1.00  0.00     0.036 H 
HETATM   17  H8  UNL     1       0.093  -0.914  -1.867  1.00  0.00     0.036 H 
HETATM   18  H9  UNL     1      -1.255   0.573  -0.403  1.00  0.00     0.082 H 
HETATM   19  H10 UNL     1      -1.081   1.100   1.901  1.00  0.00     0.066 H 
HETATM   20  H11 UNL     1      -2.805   0.600   1.554  1.00  0.00     0.066 H 
HETATM   21  H12 UNL     1      -1.935  -0.046   2.985  1.00  0.00     0.066 H 
HETATM   22  H13 UNL     1      -3.405  -0.671  -0.513  1.00  0.00     0.030 H 
HETATM   23  H14 UNL     1      -2.419  -0.907  -2.000  1.00  0.00     0.030 H 
HETATM   24  H15 UNL     1      -2.512  -2.220  -0.757  1.00  0.00     0.030 H 
HETATM   25  H16 UNL     1       0.820   1.424  -2.034  1.00  0.00     0.210 HD
TER      26      UNL     1 
ENDMDL
