REMARK FAKE_HEAD_ATOM=C1_O1
REMARK REAL_HEAD_ATOM=C2_C3
REMARK DUMMY_ATOM=C1_H1_H2_H3_O1
REMARK TORSION=H4_C2_C3_C4
MODEL 0
HETATM    1  C1  UNL     1       2.709   0.317   0.634  1.00  0.00     0.004 C 
HETATM    2  O1  UNL     1       2.181  -0.776  -0.084  1.00  0.00    -0.391 OA
HETATM    3  C2  UNL     1       1.282  -0.321  -1.077  1.00  0.00     0.043 C 
HETATM    4  C3  UNL     1      -0.107  -0.189  -0.511  1.00  0.00    -0.035 A 
HETATM    5  C4  UNL     1      -0.830  -1.337  -0.148  1.00  0.00    -0.075 A 
HETATM    6  C5  UNL     1      -2.113  -1.218   0.396  1.00  0.00    -0.082 A 
HETATM    7  C6  UNL     1      -2.680   0.045   0.586  1.00  0.00    -0.083 A 
HETATM    8  C7  UNL     1      -1.963   1.193   0.233  1.00  0.00    -0.082 A 
HETATM    9  C8  UNL     1      -0.680   1.078  -0.312  1.00  0.00    -0.075 A 
HETATM   10  H1  UNL     1       1.905   0.919   1.111  1.00  0.00     0.066 H 
HETATM   11  H2  UNL     1       3.360  -0.074   1.443  1.00  0.00     0.066 H 
HETATM   12  H3  UNL     1       3.338   0.958  -0.022  1.00  0.00     0.066 H 
HETATM   13  H4  UNL     1       1.617   0.625  -1.566  1.00  0.00     0.081 H 
HETATM   14  H5  UNL     1       1.255  -1.079  -1.889  1.00  0.00     0.081 H 
HETATM   15  H6  UNL     1      -0.400  -2.321  -0.285  1.00  0.00     0.084 H 
HETATM   16  H7  UNL     1      -2.667  -2.106   0.673  1.00  0.00     0.083 H 
HETATM   17  H8  UNL     1      -3.672   0.136   1.008  1.00  0.00     0.083 H 
HETATM   18  H9  UNL     1      -2.402   2.171   0.383  1.00  0.00     0.083 H 
HETATM   19  H10 UNL     1      -0.134   1.976  -0.575  1.00  0.00     0.084 H 
TER      20      UNL     1 
ENDMDL
