REMARK FAKE_HEAD_ATOM=C1_O1
REMARK REAL_HEAD_ATOM=C2_C3
REMARK DUMMY_ATOM=C1_H1_H2_H3_O1
REMARK TORSION=H4_C2_C3_N1
REMARK TORSION=C2_C3_N1_C4
MODEL 0
HETATM    1  C1  UNL     1       2.896  -0.925   0.566  1.00  0.00     0.004 C 
HETATM    2  O1  UNL     1       1.586  -0.841   0.054  1.00  0.00    -0.394 OA
HETATM    3  C2  UNL     1       1.259   0.512  -0.176  1.00  0.00     0.044 C 
HETATM    4  C3  UNL     1      -0.172   0.622  -0.704  1.00  0.00     0.132 C 
HETATM    5  N1  UNL     1      -1.140   0.236   0.350  1.00  0.00     0.082 N 
HETATM    6  C4  UNL     1      -2.301   1.141   0.355  1.00  0.00     0.095 C 
HETATM    7  C5  UNL     1      -1.600  -1.152   0.170  1.00  0.00     0.095 C 
HETATM    8  H1  UNL     1       3.639  -0.517  -0.155  1.00  0.00     0.066 H 
HETATM    9  H2  UNL     1       3.143  -1.994   0.732  1.00  0.00     0.066 H 
HETATM   10  H3  UNL     1       2.979  -0.406   1.547  1.00  0.00     0.066 H 
HETATM   11  H4  UNL     1       1.941   0.950  -0.941  1.00  0.00     0.076 H 
HETATM   12  H5  UNL     1       1.335   1.109   0.762  1.00  0.00     0.076 H 
HETATM   13  H6  UNL     1      -0.283   0.002  -1.623  1.00  0.00     0.083 H 
HETATM   14  H7  UNL     1      -0.317   1.680  -1.021  1.00  0.00     0.083 H 
HETATM   15  H8  UNL     1      -1.973   2.177   0.589  1.00  0.00     0.071 H 
HETATM   16  H9  UNL     1      -2.819   1.135  -0.630  1.00  0.00     0.071 H 
HETATM   17  H10 UNL     1      -3.021   0.842   1.148  1.00  0.00     0.071 H 
HETATM   18  H11 UNL     1      -2.260  -1.448   1.014  1.00  0.00     0.071 H 
HETATM   19  H12 UNL     1      -2.159  -1.272  -0.785  1.00  0.00     0.071 H 
HETATM   20  H13 UNL     1      -0.739  -1.852   0.172  1.00  0.00     0.071 H 
TER      21      UNL     1 
ENDMDL
