REMARK FAKE_HEAD_ATOM=C4_O1
REMARK REAL_HEAD_ATOM=C3_C2
REMARK DUMMY_ATOM=C4_H10_H8_H9_O1
REMARK TORSION=H6_C3_C2_S1
REMARK TORSION=C3_C2_S1_C1
MODEL 0
HETATM    1  C1  UNL     1       2.532  -0.029  -0.059  1.00  0.00    -0.035 C 
HETATM    2  S1  UNL     1       1.528  -1.406   0.587  1.00  0.00    -0.171 SA
HETATM    3  C2  UNL     1       0.197  -1.285  -0.664  1.00  0.00    -0.004 C 
HETATM    4  C3  UNL     1      -1.015  -0.547  -0.101  1.00  0.00     0.027 C 
HETATM    5  O1  UNL     1      -0.681   0.802   0.143  1.00  0.00    -0.395 OA
HETATM    6  C4  UNL     1      -1.798   1.469   0.686  1.00  0.00     0.004 C 
HETATM    7  H1  UNL     1       3.419   0.107   0.594  1.00  0.00     0.041 H 
HETATM    8  H2  UNL     1       1.945   0.911  -0.064  1.00  0.00     0.041 H 
HETATM    9  H3  UNL     1       2.879  -0.262  -1.087  1.00  0.00     0.041 H 
HETATM   10  H4  UNL     1       0.548  -0.789  -1.595  1.00  0.00     0.052 H 
HETATM   11  H5  UNL     1      -0.110  -2.318  -0.932  1.00  0.00     0.052 H 
HETATM   12  H6  UNL     1      -1.836  -0.614  -0.852  1.00  0.00     0.075 H 
HETATM   13  H7  UNL     1      -1.337  -1.058   0.836  1.00  0.00     0.075 H 
HETATM   14  H8  UNL     1      -2.658   1.457  -0.020  1.00  0.00     0.066 H 
HETATM   15  H9  UNL     1      -2.092   1.030   1.665  1.00  0.00     0.066 H 
HETATM   16  H10 UNL     1      -1.524   2.530   0.863  1.00  0.00     0.066 H 
TER      17      UNL     1 
ENDMDL
