REMARK FAKE_HEAD_ATOM=C5_O1
REMARK REAL_HEAD_ATOM=C4_C3
REMARK DUMMY_ATOM=C5_H10_H11_H9_O1
REMARK TORSION=H7_C4_C3_C2
REMARK TORSION=C4_C3_C2_C1
REMARK TORSION=C4_C3_C6_C7
MODEL 0
HETATM    1  C1  UNL     1      -1.037   1.567   1.259  1.00  0.00    -0.076 C 
HETATM    2  C2  UNL     1      -0.518   1.642  -0.177  1.00  0.00    -0.063 C 
HETATM    3  C3  UNL     1      -0.254   0.273  -0.859  1.00  0.00    -0.034 C 
HETATM    4  C4  UNL     1       0.962  -0.473  -0.274  1.00  0.00     0.022 C 
HETATM    5  O1  UNL     1       2.122   0.322  -0.412  1.00  0.00    -0.396 OA
HETATM    6  C5  UNL     1       3.225  -0.355   0.147  1.00  0.00     0.004 C 
HETATM    7  C6  UNL     1      -1.527  -0.610  -0.987  1.00  0.00    -0.063 C 
HETATM    8  C7  UNL     1      -1.765  -1.599   0.162  1.00  0.00    -0.076 C 
HETATM    9  H1  UNL     1      -2.072   1.166   1.277  1.00  0.00     0.027 H 
HETATM   10  H2  UNL     1      -0.375   0.948   1.896  1.00  0.00     0.027 H 
HETATM   11  H3  UNL     1      -1.068   2.590   1.688  1.00  0.00     0.027 H 
HETATM   12  H4  UNL     1      -1.256   2.210  -0.784  1.00  0.00     0.033 H 
HETATM   13  H5  UNL     1       0.418   2.241  -0.182  1.00  0.00     0.033 H 
HETATM   14  H6  UNL     1       0.030   0.530  -1.906  1.00  0.00     0.043 H 
HETATM   15  H7  UNL     1       1.088  -1.426  -0.839  1.00  0.00     0.074 H 
HETATM   16  H8  UNL     1       0.776  -0.715   0.796  1.00  0.00     0.074 H 
HETATM   17  H9  UNL     1       3.411  -1.322  -0.372  1.00  0.00     0.066 H 
HETATM   18  H10 UNL     1       3.085  -0.519   1.238  1.00  0.00     0.066 H 
HETATM   19  H11 UNL     1       4.129   0.274   0.016  1.00  0.00     0.066 H 
HETATM   20  H12 UNL     1      -1.452  -1.205  -1.923  1.00  0.00     0.033 H 
HETATM   21  H13 UNL     1      -2.424   0.037  -1.097  1.00  0.00     0.033 H 
HETATM   22  H14 UNL     1      -1.742  -1.099   1.149  1.00  0.00     0.027 H 
HETATM   23  H15 UNL     1      -0.999  -2.403   0.147  1.00  0.00     0.027 H 
HETATM   24  H16 UNL     1      -2.760  -2.075   0.036  1.00  0.00     0.027 H 
TER      25      UNL     1 
ENDMDL
