REMARK FAKE_HEAD_ATOM=C4_O1
REMARK REAL_HEAD_ATOM=C2_C1
REMARK DUMMY_ATOM=C4_H6_H7_H8_O1
REMARK TORSION=H3_C2_C3_F2
REMARK TORSION=H3_C2_C1_F1
MODEL 0
HETATM    1  F1  UNL     1      -2.057  -1.667  -0.470  1.00  0.00    -0.253 F 
HETATM    2  C1  UNL     1      -1.018  -1.369   0.394  1.00  0.00     0.084 C 
HETATM    3  C2  UNL     1      -0.213  -0.172  -0.121  1.00  0.00     0.087 C 
HETATM    4  C3  UNL     1      -1.068   1.102  -0.124  1.00  0.00     0.084 C 
HETATM    5  F2  UNL     1      -2.117   0.983  -1.019  1.00  0.00    -0.253 F 
HETATM    6  O1  UNL     1       0.900   0.015   0.739  1.00  0.00    -0.386 OA
HETATM    7  C4  UNL     1       2.054   0.347  -0.002  1.00  0.00     0.005 C 
HETATM    8  H1  UNL     1      -0.356  -2.258   0.465  1.00  0.00     0.086 H 
HETATM    9  H2  UNL     1      -1.430  -1.158   1.405  1.00  0.00     0.086 H 
HETATM   10  H3  UNL     1       0.081  -0.407  -1.174  1.00  0.00     0.090 H 
HETATM   11  H4  UNL     1      -0.448   1.971  -0.429  1.00  0.00     0.086 H 
HETATM   12  H5  UNL     1      -1.472   1.302   0.891  1.00  0.00     0.086 H 
HETATM   13  H6  UNL     1       1.891   1.252  -0.628  1.00  0.00     0.066 H 
HETATM   14  H7  UNL     1       2.877   0.571   0.707  1.00  0.00     0.066 H 
HETATM   15  H8  UNL     1       2.375  -0.510  -0.634  1.00  0.00     0.066 H 
TER      16      UNL     1 
ENDMDL
