REMARK FAKE_HEAD_ATOM=C4_O2
REMARK REAL_HEAD_ATOM=C3_C1
REMARK DUMMY_ATOM=C4_H7_H8_H9_O2
REMARK TORSION=H5_C3_C1_C2
REMARK TORSION=C3_C1_C2_CL1
REMARK TORSION=C3_C1_O1_H1
MODEL 0
HETATM    1  O1  UNL     1      -1.324  -1.617   0.474  1.00  0.00    -0.392 OA
HETATM    2  C1  UNL     1      -1.159  -0.576  -0.457  1.00  0.00     0.068 C 
HETATM    3  C2  UNL     1      -1.865   0.702   0.030  1.00  0.00     0.028 C 
HETATM    4 CL1  UNL     1      -1.946   1.935  -1.257  1.00  0.00    -0.128 Cl
HETATM    5  C3  UNL     1       0.334  -0.357  -0.759  1.00  0.00     0.044 C 
HETATM    6  O2  UNL     1       1.007   0.092   0.401  1.00  0.00    -0.393 OA
HETATM    7  C4  UNL     1       2.369   0.299   0.101  1.00  0.00     0.004 C 
HETATM    8  H1  UNL     1      -0.944  -1.312   1.339  1.00  0.00     0.210 HD
HETATM    9  H2  UNL     1      -1.651  -0.897  -1.402  1.00  0.00     0.087 H 
HETATM   10  H3  UNL     1      -2.906   0.454   0.330  1.00  0.00     0.060 H 
HETATM   11  H4  UNL     1      -1.344   1.129   0.913  1.00  0.00     0.060 H 
HETATM   12  H5  UNL     1       0.761  -1.326  -1.106  1.00  0.00     0.078 H 
HETATM   13  H6  UNL     1       0.430   0.385  -1.584  1.00  0.00     0.078 H 
HETATM   14  H7  UNL     1       2.495   1.091  -0.670  1.00  0.00     0.066 H 
HETATM   15  H8  UNL     1       2.884   0.643   1.021  1.00  0.00     0.066 H 
HETATM   16  H9  UNL     1       2.858  -0.645  -0.226  1.00  0.00     0.066 H 
TER      17      UNL     1 
ENDMDL
