REMARK FAKE_HEAD_ATOM=C4_O3
REMARK REAL_HEAD_ATOM=C3_C1
REMARK DUMMY_ATOM=C4_H10_H8_H9_O3
REMARK TORSION=H6_C3_C1_C2
REMARK TORSION=C3_C1_C2_O2
REMARK TORSION=C1_C2_O2_H5
REMARK TORSION=C3_C1_O1_H1
MODEL 0
HETATM    1  O1  UNL     1      -1.795   1.268   0.966  1.00  0.00    -0.391 OA
HETATM    2  C1  UNL     1      -0.980   0.448   0.168  1.00  0.00     0.076 C 
HETATM    3  C2  UNL     1      -1.438  -1.007   0.318  1.00  0.00     0.042 C 
HETATM    4  O2  UNL     1      -2.771  -1.127  -0.096  1.00  0.00    -0.398 OA
HETATM    5  C3  UNL     1       0.487   0.614   0.589  1.00  0.00     0.045 C 
HETATM    6  O3  UNL     1       1.319  -0.125  -0.282  1.00  0.00    -0.393 OA
HETATM    7  C4  UNL     1       2.662   0.009   0.128  1.00  0.00     0.004 C 
HETATM    8  H1  UNL     1      -1.697   2.194   0.621  1.00  0.00     0.210 HD
HETATM    9  H2  UNL     1      -1.084   0.739  -0.904  1.00  0.00     0.089 H 
HETATM   10  H3  UNL     1      -1.347  -1.322   1.382  1.00  0.00     0.078 H 
HETATM   11  H4  UNL     1      -0.799  -1.669  -0.308  1.00  0.00     0.078 H 
HETATM   12  H5  UNL     1      -3.014  -2.081   0.029  1.00  0.00     0.209 HD
HETATM   13  H6  UNL     1       0.602   0.267   1.643  1.00  0.00     0.078 H 
HETATM   14  H7  UNL     1       0.744   1.697   0.536  1.00  0.00     0.078 H 
HETATM   15  H8  UNL     1       2.991   1.071   0.090  1.00  0.00     0.066 H 
HETATM   16  H9  UNL     1       2.815  -0.410   1.147  1.00  0.00     0.066 H 
HETATM   17  H10 UNL     1       3.303  -0.566  -0.571  1.00  0.00     0.066 H 
TER      18      UNL     1 
ENDMDL
