REMARK FAKE_HEAD_ATOM=C6_O2
REMARK REAL_HEAD_ATOM=C5_C4
REMARK DUMMY_ATOM=C6_H5_H6_H7_O2
REMARK TORSION=H3_C5_C4_C3
REMARK TORSION=C2_C1_N1_O1
MODEL 0
HETATM    1  O1  UNL     1      -4.251  -0.251   1.491  1.00  0.00    -0.532 OA
HETATM    2  N1  UNL     1      -3.577   0.649   0.697  1.00  0.00    -0.116 N 
HETATM    3  C1  UNL     1      -2.240   0.367   0.244  1.00  0.00     0.102 A 
HETATM    4  C2  UNL     1      -1.548   1.285  -0.566  1.00  0.00    -0.050 A 
HETATM    5  C3  UNL     1      -0.249   1.007  -1.003  1.00  0.00    -0.072 A 
HETATM    6  C4  UNL     1       0.378  -0.194  -0.642  1.00  0.00    -0.035 A 
HETATM    7  C5  UNL     1       1.785  -0.477  -1.099  1.00  0.00     0.043 C 
HETATM    8  O2  UNL     1       2.699   0.389  -0.454  1.00  0.00    -0.391 OA
HETATM    9  C6  UNL     1       3.116  -0.167   0.774  1.00  0.00     0.004 C 
HETATM   10  C7  UNL     1      -0.305  -1.109   0.172  1.00  0.00    -0.072 A 
HETATM   11  C8  UNL     1      -1.604  -0.832   0.610  1.00  0.00    -0.050 A 
HETATM   12  O3  UNL     1      -4.147   1.713   0.376  1.00  0.00    -0.532 OA
HETATM   13  H1  UNL     1      -2.009   2.218  -0.862  1.00  0.00     0.087 H 
HETATM   14  H2  UNL     1       0.269   1.729  -1.623  1.00  0.00     0.084 H 
HETATM   15  H3  UNL     1       2.048  -1.554  -0.977  1.00  0.00     0.081 H 
HETATM   16  H4  UNL     1       1.842  -0.282  -2.191  1.00  0.00     0.081 H 
HETATM   17  H5  UNL     1       3.781   0.560   1.284  1.00  0.00     0.066 H 
HETATM   18  H6  UNL     1       2.252  -0.360   1.448  1.00  0.00     0.066 H 
HETATM   19  H7  UNL     1       3.699  -1.100   0.611  1.00  0.00     0.066 H 
HETATM   20  H8  UNL     1       0.167  -2.037   0.471  1.00  0.00     0.084 H 
HETATM   21  H9  UNL     1      -2.109  -1.557   1.235  1.00  0.00     0.087 H 
TER      22      UNL     1 
ENDMDL
