REMARK FAKE_HEAD_ATOM=C2_O2
REMARK REAL_HEAD_ATOM=C1_O1
REMARK DUMMY_ATOM=C2_H2_H3_H4_O2
MODEL 0
HETATM    1  O1  UNL     1       1.499   0.951   0.583  1.00  0.00    -0.276 OA
HETATM    2  C1  UNL     1       1.387  -0.115  -0.081  1.00  0.00     0.205 C 
HETATM    3  O2  UNL     1       0.132  -0.638  -0.399  1.00  0.00    -0.333 OA
HETATM    4  C2  UNL     1      -1.081  -0.012  -0.000  1.00  0.00     0.012 C 
HETATM    5  H1  UNL     1       2.278  -0.633  -0.409  1.00  0.00     0.192 H 
HETATM    6  H2  UNL     1      -1.143   1.009  -0.434  1.00  0.00     0.067 H 
HETATM    7  H3  UNL     1      -1.939  -0.611  -0.368  1.00  0.00     0.067 H 
HETATM    8  H4  UNL     1      -1.133   0.048   1.108  1.00  0.00     0.067 H 
TER       9      UNL     1 
ENDMDL
