REMARK FAKE_HEAD_ATOM=C3_O1
REMARK REAL_HEAD_ATOM=C2_C1
REMARK DUMMY_ATOM=C3_H10_H8_H9_O1
REMARK TORSION=H6_C2_C1_N1
MODEL 0
HETATM    1  N1  UNL     1       1.663   0.979  -0.175  1.00  0.00    -0.077 N 
HETATM    2  C1  UNL     1       1.020  -0.153   0.494  1.00  0.00     0.099 C 
HETATM    3  C2  UNL     1      -0.015  -0.830  -0.415  1.00  0.00     0.041 C 
HETATM    4  O1  UNL     1      -1.031   0.082  -0.791  1.00  0.00    -0.394 OA
HETATM    5  C3  UNL     1      -2.145  -0.039   0.066  1.00  0.00     0.004 C 
HETATM    6  H1  UNL     1       2.126   0.660  -1.058  1.00  0.00     0.274 HD
HETATM    7  H2  UNL     1       2.390   1.382   0.459  1.00  0.00     0.274 HD
HETATM    8  H3  UNL     1       0.958   1.720  -0.392  1.00  0.00     0.274 HD
HETATM    9  H4  UNL     1       1.794  -0.901   0.775  1.00  0.00     0.078 H 
HETATM   10  H5  UNL     1       0.531   0.196   1.429  1.00  0.00     0.078 H 
HETATM   11  H6  UNL     1      -0.405  -1.750   0.082  1.00  0.00     0.076 H 
HETATM   12  H7  UNL     1       0.496  -1.176  -1.338  1.00  0.00     0.076 H 
HETATM   13  H8  UNL     1      -2.882   0.746  -0.199  1.00  0.00     0.066 H 
HETATM   14  H9  UNL     1      -1.861   0.110   1.131  1.00  0.00     0.066 H 
HETATM   15  H10 UNL     1      -2.640  -1.026  -0.069  1.00  0.00     0.066 H 
TER      16      UNL     1 
ENDMDL
