REMARK FAKE_HEAD_ATOM=C4_O1
REMARK REAL_HEAD_ATOM=C2_C3
REMARK DUMMY_ATOM=C4_H10_H11_H12_O1
REMARK TORSION=H4_C2_C3_N1
MODEL 0
HETATM    1  C1  UNL     1       0.754  -1.783   0.047  1.00  0.00    -0.051 C 
HETATM    2  C2  UNL     1       0.178  -0.368   0.156  1.00  0.00     0.057 C 
HETATM    3  C3  UNL     1      -1.334  -0.391  -0.131  1.00  0.00     0.103 C 
HETATM    4  N1  UNL     1      -1.930   0.932   0.054  1.00  0.00    -0.077 N 
HETATM    5  O1  UNL     1       0.815   0.469  -0.796  1.00  0.00    -0.389 OA
HETATM    6  C4  UNL     1       1.816   1.250  -0.182  1.00  0.00     0.004 C 
HETATM    7  H1  UNL     1       1.840  -1.769   0.275  1.00  0.00     0.030 H 
HETATM    8  H2  UNL     1       0.611  -2.182  -0.980  1.00  0.00     0.030 H 
HETATM    9  H3  UNL     1       0.255  -2.460   0.773  1.00  0.00     0.030 H 
HETATM   10  H4  UNL     1       0.309  -0.024   1.212  1.00  0.00     0.085 H 
HETATM   11  H5  UNL     1      -1.513  -0.734  -1.175  1.00  0.00     0.079 H 
HETATM   12  H6  UNL     1      -1.832  -1.111   0.556  1.00  0.00     0.079 H 
HETATM   13  H7  UNL     1      -1.771   1.266   1.032  1.00  0.00     0.274 HD
HETATM   14  H8  UNL     1      -1.518   1.614  -0.624  1.00  0.00     0.274 HD
HETATM   15  H9  UNL     1      -2.960   0.870  -0.117  1.00  0.00     0.274 HD
HETATM   16  H10 UNL     1       2.569   0.614   0.333  1.00  0.00     0.066 H 
HETATM   17  H11 UNL     1       2.344   1.830  -0.966  1.00  0.00     0.066 H 
HETATM   18  H12 UNL     1       1.366   1.976   0.531  1.00  0.00     0.066 H 
TER      19      UNL     1 
ENDMDL
