REMARK FAKE_HEAD_ATOM=C5_O3
REMARK REAL_HEAD_ATOM=C4_C2
REMARK DUMMY_ATOM=C5_H10_H11_H12_O3
REMARK TORSION=H8_C4_C2_C1
REMARK TORSION=C4_C2_C1_O1
REMARK TORSION=C2_C1_O1_H1
REMARK TORSION=C4_C2_C3_O2
REMARK TORSION=C2_C3_O2_H7
MODEL 0
HETATM    1  O1  UNL     1      -2.461  -1.886  -0.164  1.00  0.00    -0.400 OA
HETATM    2  C1  UNL     1      -1.173  -1.615   0.317  1.00  0.00     0.024 C 
HETATM    3  C2  UNL     1      -0.586  -0.385  -0.400  1.00  0.00     0.007 C 
HETATM    4  C3  UNL     1      -1.416   0.875  -0.079  1.00  0.00     0.024 C 
HETATM    5  O2  UNL     1      -1.001   1.948  -0.879  1.00  0.00    -0.400 OA
HETATM    6  C4  UNL     1       0.892  -0.201  -0.002  1.00  0.00     0.026 C 
HETATM    7  O3  UNL     1       1.485   0.800  -0.803  1.00  0.00    -0.395 OA
HETATM    8  C5  UNL     1       2.821   0.996  -0.397  1.00  0.00     0.004 C 
HETATM    9  H1  UNL     1      -2.788  -2.670   0.349  1.00  0.00     0.209 HD
HETATM   10  H2  UNL     1      -0.526  -2.501   0.129  1.00  0.00     0.074 H 
HETATM   11  H3  UNL     1      -1.210  -1.431   1.415  1.00  0.00     0.074 H 
HETATM   12  H4  UNL     1      -0.633  -0.574  -1.496  1.00  0.00     0.049 H 
HETATM   13  H5  UNL     1      -1.303   1.139   0.997  1.00  0.00     0.074 H 
HETATM   14  H6  UNL     1      -2.492   0.677  -0.278  1.00  0.00     0.074 H 
HETATM   15  H7  UNL     1      -1.552   2.727  -0.604  1.00  0.00     0.209 HD
HETATM   16  H8  UNL     1       0.946   0.066   1.079  1.00  0.00     0.075 H 
HETATM   17  H9  UNL     1       1.426  -1.168  -0.158  1.00  0.00     0.075 H 
HETATM   18  H10 UNL     1       3.421   0.066  -0.515  1.00  0.00     0.066 H 
HETATM   19  H11 UNL     1       3.277   1.773  -1.045  1.00  0.00     0.066 H 
HETATM   20  H12 UNL     1       2.873   1.362   0.653  1.00  0.00     0.066 H 
TER      21      UNL     1 
ENDMDL
