REMARK FAKE_HEAD_ATOM=C29_O1
REMARK REAL_HEAD_ATOM=C28_C27
REMARK DUMMY_ATOM=C29_H58_H59_H60_O1
REMARK TORSION=H56_C28_C27_C26
REMARK TORSION=C28_C27_C26_C25
REMARK TORSION=C27_C26_C25_C24
REMARK TORSION=C26_C25_C24_C23
REMARK TORSION=C25_C24_C23_C22
REMARK TORSION=C24_C23_C22_C21
REMARK TORSION=C23_C22_C21_C20
REMARK TORSION=C22_C21_C20_C19
REMARK TORSION=C21_C20_C19_C18
REMARK TORSION=C20_C19_C18_C17
REMARK TORSION=C19_C18_C17_C16
REMARK TORSION=C18_C17_C16_C15
REMARK TORSION=C17_C16_C15_C14
REMARK TORSION=C16_C15_C14_C13
REMARK TORSION=C15_C14_C13_C12
REMARK TORSION=C14_C13_C12_C11
REMARK TORSION=C13_C12_C11_C10
REMARK TORSION=C12_C11_C10_C9
REMARK TORSION=C11_C10_C9_C8
REMARK TORSION=C10_C9_C8_C7
REMARK TORSION=C9_C8_C7_C6
REMARK TORSION=C8_C7_C6_C5
REMARK TORSION=C7_C6_C5_C4
REMARK TORSION=C6_C5_C4_C3
REMARK TORSION=C5_C4_C3_C2
REMARK TORSION=C4_C3_C2_C1
MODEL 0
HETATM    1  C1  UNL     1      12.551   0.148  -0.654  1.00  0.00    -0.077 C 
HETATM    2  C2  UNL     1      11.779   1.122  -1.543  1.00  0.00    -0.069 C 
HETATM    3  C3  UNL     1      10.602   1.797  -0.816  1.00  0.00    -0.065 C 
HETATM    4  C4  UNL     1       9.511   0.832  -0.317  1.00  0.00    -0.065 C 
HETATM    5  C5  UNL     1       8.812   0.078  -1.458  1.00  0.00    -0.065 C 
HETATM    6  C6  UNL     1       7.617  -0.727  -0.934  1.00  0.00    -0.065 C 
HETATM    7  C7  UNL     1       6.935  -1.506  -2.069  1.00  0.00    -0.065 C 
HETATM    8  C8  UNL     1       5.686  -2.271  -1.580  1.00  0.00    -0.065 C 
HETATM    9  C9  UNL     1       4.358  -1.623  -2.007  1.00  0.00    -0.065 C 
HETATM   10  C10 UNL     1       4.114  -0.265  -1.330  1.00  0.00    -0.065 C 
HETATM   11  C11 UNL     1       2.784   0.388  -1.751  1.00  0.00    -0.065 C 
HETATM   12  C12 UNL     1       1.514  -0.395  -1.372  1.00  0.00    -0.065 C 
HETATM   13  C13 UNL     1       1.364  -0.597   0.146  1.00  0.00    -0.065 C 
HETATM   14  C14 UNL     1       0.035  -1.273   0.522  1.00  0.00    -0.065 C 
HETATM   15  C15 UNL     1      -1.164  -0.317   0.428  1.00  0.00    -0.065 C 
HETATM   16  C16 UNL     1      -2.444  -0.992   0.943  1.00  0.00    -0.065 C 
HETATM   17  C17 UNL     1      -3.704  -0.142   0.711  1.00  0.00    -0.065 C 
HETATM   18  C18 UNL     1      -3.709   1.234   1.407  1.00  0.00    -0.065 C 
HETATM   19  C19 UNL     1      -3.505   1.196   2.933  1.00  0.00    -0.065 C 
HETATM   20  C20 UNL     1      -4.601   0.443   3.710  1.00  0.00    -0.065 C 
HETATM   21  C21 UNL     1      -5.975   1.146   3.675  1.00  0.00    -0.065 C 
HETATM   22  C22 UNL     1      -6.968   0.440   2.740  1.00  0.00    -0.065 C 
HETATM   23  C23 UNL     1      -8.311   1.185   2.698  1.00  0.00    -0.065 C 
HETATM   24  C24 UNL     1      -9.351   0.472   1.808  1.00  0.00    -0.065 C 
HETATM   25  C25 UNL     1      -9.540   1.125   0.425  1.00  0.00    -0.065 C 
HETATM   26  C26 UNL     1      -8.319   1.039  -0.507  1.00  0.00    -0.063 C 
HETATM   27  C27 UNL     1      -7.982  -0.403  -0.916  1.00  0.00    -0.045 C 
HETATM   28  C28 UNL     1      -6.871  -0.435  -1.970  1.00  0.00     0.019 C 
HETATM   29  O1  UNL     1      -6.640  -1.765  -2.396  1.00  0.00    -0.396 OA
HETATM   30  C29 UNL     1      -5.554  -2.328  -1.694  1.00  0.00     0.004 C 
HETATM   31  H1  UNL     1      11.940  -0.753  -0.438  1.00  0.00     0.027 H 
HETATM   32  H2  UNL     1      12.843   0.637   0.299  1.00  0.00     0.027 H 
HETATM   33  H3  UNL     1      13.472  -0.180  -1.181  1.00  0.00     0.027 H 
HETATM   34  H4  UNL     1      11.427   0.599  -2.457  1.00  0.00     0.032 H 
HETATM   35  H5  UNL     1      12.480   1.918  -1.875  1.00  0.00     0.032 H 
HETATM   36  H6  UNL     1      10.996   2.365   0.055  1.00  0.00     0.033 H 
HETATM   37  H7  UNL     1      10.140   2.539  -1.503  1.00  0.00     0.033 H 
HETATM   38  H8  UNL     1       8.754   1.436   0.230  1.00  0.00     0.033 H 
HETATM   39  H9  UNL     1       9.938   0.110   0.411  1.00  0.00     0.033 H 
HETATM   40  H10 UNL     1       8.457   0.806  -2.221  1.00  0.00     0.033 H 
HETATM   41  H11 UNL     1       9.531  -0.620  -1.938  1.00  0.00     0.033 H 
HETATM   42  H12 UNL     1       7.971  -1.446  -0.161  1.00  0.00     0.033 H 
HETATM   43  H13 UNL     1       6.891  -0.036  -0.457  1.00  0.00     0.033 H 
HETATM   44  H14 UNL     1       7.666  -2.241  -2.473  1.00  0.00     0.033 H 
HETATM   45  H15 UNL     1       6.674  -0.817  -2.902  1.00  0.00     0.033 H 
HETATM   46  H16 UNL     1       5.700  -2.407  -0.476  1.00  0.00     0.033 H 
HETATM   47  H17 UNL     1       5.712  -3.293  -2.020  1.00  0.00     0.033 H 
HETATM   48  H18 UNL     1       3.547  -2.326  -1.727  1.00  0.00     0.033 H 
HETATM   49  H19 UNL     1       4.338  -1.504  -3.113  1.00  0.00     0.033 H 
HETATM   50  H20 UNL     1       4.923   0.434  -1.627  1.00  0.00     0.033 H 
HETATM   51  H21 UNL     1       4.162  -0.371  -0.226  1.00  0.00     0.033 H 
HETATM   52  H22 UNL     1       2.792   0.535  -2.854  1.00  0.00     0.033 H 
HETATM   53  H23 UNL     1       2.729   1.399  -1.292  1.00  0.00     0.033 H 
HETATM   54  H24 UNL     1       1.493  -1.376  -1.891  1.00  0.00     0.033 H 
HETATM   55  H25 UNL     1       0.649   0.187  -1.752  1.00  0.00     0.033 H 
HETATM   56  H26 UNL     1       1.458   0.376   0.675  1.00  0.00     0.033 H 
HETATM   57  H27 UNL     1       2.182  -1.258   0.503  1.00  0.00     0.033 H 
HETATM   58  H28 UNL     1       0.119  -1.634   1.571  1.00  0.00     0.033 H 
HETATM   59  H29 UNL     1      -0.134  -2.161  -0.126  1.00  0.00     0.033 H 
HETATM   60  H30 UNL     1      -1.320  -0.009  -0.627  1.00  0.00     0.033 H 
HETATM   61  H31 UNL     1      -0.952   0.588   1.038  1.00  0.00     0.033 H 
HETATM   62  H32 UNL     1      -2.340  -1.241   2.021  1.00  0.00     0.033 H 
HETATM   63  H33 UNL     1      -2.584  -1.953   0.402  1.00  0.00     0.033 H 
HETATM   64  H34 UNL     1      -3.820   0.025  -0.381  1.00  0.00     0.033 H 
HETATM   65  H35 UNL     1      -4.588  -0.728   1.036  1.00  0.00     0.033 H 
HETATM   66  H36 UNL     1      -2.914   1.869   0.961  1.00  0.00     0.033 H 
HETATM   67  H37 UNL     1      -4.667   1.747   1.177  1.00  0.00     0.033 H 
HETATM   68  H38 UNL     1      -2.518   0.744   3.166  1.00  0.00     0.033 H 
HETATM   69  H39 UNL     1      -3.455   2.242   3.306  1.00  0.00     0.033 H 
HETATM   70  H40 UNL     1      -4.669  -0.611   3.369  1.00  0.00     0.033 H 
HETATM   71  H41 UNL     1      -4.269   0.395   4.771  1.00  0.00     0.033 H 
HETATM   72  H42 UNL     1      -6.402   1.140   4.702  1.00  0.00     0.033 H 
HETATM   73  H43 UNL     1      -5.866   2.212   3.376  1.00  0.00     0.033 H 
HETATM   74  H44 UNL     1      -6.542   0.383   1.722  1.00  0.00     0.033 H 
HETATM   75  H45 UNL     1      -7.134  -0.597   3.105  1.00  0.00     0.033 H 
HETATM   76  H46 UNL     1      -8.154   2.232   2.358  1.00  0.00     0.033 H 
HETATM   77  H47 UNL     1      -8.712   1.235   3.734  1.00  0.00     0.033 H 
HETATM   78  H48 UNL     1      -9.128  -0.611   1.706  1.00  0.00     0.033 H 
HETATM   79  H49 UNL     1     -10.334   0.528   2.325  1.00  0.00     0.033 H 
HETATM   80  H50 UNL     1      -9.805   2.195   0.565  1.00  0.00     0.033 H 
HETATM   81  H51 UNL     1     -10.408   0.644  -0.078  1.00  0.00     0.033 H 
HETATM   82  H52 UNL     1      -8.558   1.622  -1.424  1.00  0.00     0.033 H 
HETATM   83  H53 UNL     1      -7.439   1.526  -0.038  1.00  0.00     0.033 H 
HETATM   84  H54 UNL     1      -7.650  -0.980  -0.028  1.00  0.00     0.036 H 
HETATM   85  H55 UNL     1      -8.889  -0.893  -1.333  1.00  0.00     0.036 H 
HETATM   86  H56 UNL     1      -5.958   0.077  -1.586  1.00  0.00     0.074 H 
HETATM   87  H57 UNL     1      -7.206   0.146  -2.855  1.00  0.00     0.074 H 
HETATM   88  H58 UNL     1      -4.603  -1.816  -1.961  1.00  0.00     0.066 H 
HETATM   89  H59 UNL     1      -5.717  -2.298  -0.595  1.00  0.00     0.066 H 
HETATM   90  H60 UNL     1      -5.455  -3.393  -1.989  1.00  0.00     0.066 H 
TER      91      UNL     1 
ENDMDL
