REMARK FAKE_HEAD_ATOM=C6_O1
REMARK REAL_HEAD_ATOM=C5_C4
REMARK DUMMY_ATOM=C6_H10_H11_H12_O1
REMARK TORSION=H8_C5_C4_C1
REMARK TORSION=C4_C1_C2_C3
MODEL 0
HETATM    1  C1  UNL     1       1.096  -0.923   0.884  1.00  0.00    -0.105 C 
HETATM    2  C2  UNL     1       1.378   0.554   0.778  1.00  0.00    -0.053 C 
HETATM    3  C3  UNL     1       2.281   0.851  -0.415  1.00  0.00    -0.073 C 
HETATM    4  C4  UNL     1       0.073  -1.549   0.272  1.00  0.00    -0.084 C 
HETATM    5  C5  UNL     1      -0.969  -0.851  -0.557  1.00  0.00     0.034 C 
HETATM    6  O1  UNL     1      -1.788  -0.068   0.286  1.00  0.00    -0.392 OA
HETATM    7  C6  UNL     1      -2.720   0.642  -0.498  1.00  0.00     0.004 C 
HETATM    8  H1  UNL     1       1.789  -1.525   1.464  1.00  0.00     0.076 H 
HETATM    9  H2  UNL     1       1.899   0.880   1.704  1.00  0.00     0.038 H 
HETATM   10  H3  UNL     1       0.442   1.145   0.702  1.00  0.00     0.038 H 
HETATM   11  H4  UNL     1       3.245   0.308  -0.312  1.00  0.00     0.027 H 
HETATM   12  H5  UNL     1       1.792   0.546  -1.364  1.00  0.00     0.027 H 
HETATM   13  H6  UNL     1       2.490   1.940  -0.460  1.00  0.00     0.027 H 
HETATM   14  H7  UNL     1      -0.007  -2.627   0.383  1.00  0.00     0.079 H 
HETATM   15  H8  UNL     1      -0.466  -0.233  -1.333  1.00  0.00     0.080 H 
HETATM   16  H9  UNL     1      -1.581  -1.631  -1.065  1.00  0.00     0.080 H 
HETATM   17  H10 UNL     1      -3.371  -0.049  -1.078  1.00  0.00     0.066 H 
HETATM   18  H11 UNL     1      -2.209   1.358  -1.178  1.00  0.00     0.066 H 
HETATM   19  H12 UNL     1      -3.374   1.231   0.178  1.00  0.00     0.066 H 
TER      20      UNL     1 
ENDMDL
