REMARK FAKE_HEAD_ATOM=C7_O1
REMARK REAL_HEAD_ATOM=C5_C6
REMARK DUMMY_ATOM=C7_H14_H15_H16_O1
REMARK TORSION=H12_C6_C5_C4
REMARK TORSION=C6_C5_C4_C3
REMARK TORSION=C5_C4_C3_C2
REMARK TORSION=C4_C3_C2_C1
MODEL 0
HETATM    1  C1  UNL     1       3.053  -0.011  -1.084  1.00  0.00    -0.077 C 
HETATM    2  C2  UNL     1       2.126  -1.198  -0.826  1.00  0.00    -0.069 C 
HETATM    3  C3  UNL     1       1.473  -1.162   0.567  1.00  0.00    -0.065 C 
HETATM    4  C4  UNL     1       0.564   0.054   0.823  1.00  0.00    -0.063 C 
HETATM    5  C5  UNL     1      -0.651   0.102  -0.117  1.00  0.00    -0.045 C 
HETATM    6  C6  UNL     1      -1.619   1.218   0.288  1.00  0.00     0.019 C 
HETATM    7  O1  UNL     1      -2.678   1.308  -0.647  1.00  0.00    -0.396 OA
HETATM    8  C7  UNL     1      -3.806   0.598  -0.186  1.00  0.00     0.004 C 
HETATM    9  H1  UNL     1       3.611  -0.177  -2.029  1.00  0.00     0.027 H 
HETATM   10  H2  UNL     1       3.785   0.098  -0.256  1.00  0.00     0.027 H 
HETATM   11  H3  UNL     1       2.468   0.926  -1.190  1.00  0.00     0.027 H 
HETATM   12  H4  UNL     1       2.728  -2.130  -0.900  1.00  0.00     0.032 H 
HETATM   13  H5  UNL     1       1.352  -1.250  -1.621  1.00  0.00     0.032 H 
HETATM   14  H6  UNL     1       0.878  -2.091   0.704  1.00  0.00     0.033 H 
HETATM   15  H7  UNL     1       2.273  -1.174   1.339  1.00  0.00     0.033 H 
HETATM   16  H8  UNL     1       0.202  -0.013   1.872  1.00  0.00     0.033 H 
HETATM   17  H9  UNL     1       1.147   0.996   0.739  1.00  0.00     0.033 H 
HETATM   18  H10 UNL     1      -0.313   0.291  -1.158  1.00  0.00     0.036 H 
HETATM   19  H11 UNL     1      -1.180  -0.875  -0.088  1.00  0.00     0.036 H 
HETATM   20  H12 UNL     1      -1.071   2.184   0.271  1.00  0.00     0.074 H 
HETATM   21  H13 UNL     1      -1.965   1.071   1.340  1.00  0.00     0.074 H 
HETATM   22  H14 UNL     1      -4.236   1.085   0.717  1.00  0.00     0.066 H 
HETATM   23  H15 UNL     1      -4.582   0.613  -0.978  1.00  0.00     0.066 H 
HETATM   24  H16 UNL     1      -3.561  -0.466   0.027  1.00  0.00     0.066 H 
TER      25      UNL     1 
ENDMDL
