REMARK FAKE_HEAD_ATOM=C5_O2
REMARK REAL_HEAD_ATOM=C4_C3
REMARK DUMMY_ATOM=C5_H10_H11_H9_O2
REMARK TORSION=H7_C4_C3_O1
REMARK TORSION=C4_C3_O1_C2
REMARK TORSION=C3_O1_C2_C1
REMARK TORSION=O1_C2_C1_CL1
MODEL 0
HETATM    1 CL1  UNL     1       4.714   0.461   0.265  1.00  0.00    -0.128 Cl
HETATM    2  C1  UNL     1       3.048   0.844  -0.237  1.00  0.00     0.022 C 
HETATM    3  C2  UNL     1       2.104  -0.281   0.165  1.00  0.00     0.031 C 
HETATM    4  O1  UNL     1       0.794   0.049  -0.244  1.00  0.00    -0.388 OA
HETATM    5  C3  UNL     1      -0.089  -0.991   0.121  1.00  0.00     0.039 C 
HETATM    6  C4  UNL     1      -1.504  -0.627  -0.314  1.00  0.00     0.039 C 
HETATM    7  O2  UNL     1      -1.911   0.549   0.353  1.00  0.00    -0.394 OA
HETATM    8  C5  UNL     1      -3.217   0.889  -0.057  1.00  0.00     0.004 C 
HETATM    9  H1  UNL     1       2.734   1.792   0.250  1.00  0.00     0.059 H 
HETATM   10  H2  UNL     1       3.026   0.980  -1.339  1.00  0.00     0.059 H 
HETATM   11  H3  UNL     1       2.152  -0.403   1.271  1.00  0.00     0.076 H 
HETATM   12  H4  UNL     1       2.445  -1.220  -0.329  1.00  0.00     0.076 H 
HETATM   13  H5  UNL     1       0.195  -1.943  -0.383  1.00  0.00     0.077 H 
HETATM   14  H6  UNL     1      -0.089  -1.145   1.225  1.00  0.00     0.077 H 
HETATM   15  H7  UNL     1      -1.506  -0.480  -1.418  1.00  0.00     0.077 H 
HETATM   16  H8  UNL     1      -2.175  -1.478  -0.055  1.00  0.00     0.077 H 
HETATM   17  H9  UNL     1      -3.944   0.089   0.207  1.00  0.00     0.066 H 
HETATM   18  H10 UNL     1      -3.525   1.811   0.477  1.00  0.00     0.066 H 
HETATM   19  H11 UNL     1      -3.253   1.104  -1.148  1.00  0.00     0.066 H 
TER      20      UNL     1 
ENDMDL
