REMARK FAKE_HEAD_ATOM=C4_O1
REMARK REAL_HEAD_ATOM=C3_C2
REMARK DUMMY_ATOM=C4_H7_H8_H9_O1
REMARK TORSION=H5_C3_C2_C1
MODEL 0
HETATM    1  C1  UNL     1      -1.817   1.178  -0.214  1.00  0.00    -0.048 C 
HETATM    2  C2  UNL     1      -0.893  -0.038  -0.363  1.00  0.00     0.117 C 
HETATM    3  C3  UNL     1       0.562   0.351  -0.046  1.00  0.00     0.045 C 
HETATM    4  O1  UNL     1       1.413  -0.744  -0.312  1.00  0.00    -0.394 OA
HETATM    5  C4  UNL     1       2.741  -0.394   0.006  1.00  0.00     0.004 C 
HETATM    6  N1  UNL     1      -1.345  -1.131   0.509  1.00  0.00    -0.073 N 
HETATM    7  H1  UNL     1      -1.498   1.991  -0.901  1.00  0.00     0.030 H 
HETATM    8  H2  UNL     1      -1.796   1.559   0.830  1.00  0.00     0.030 H 
HETATM    9  H3  UNL     1      -2.861   0.898  -0.472  1.00  0.00     0.030 H 
HETATM   10  H4  UNL     1      -0.943  -0.378  -1.422  1.00  0.00     0.086 H 
HETATM   11  H5  UNL     1       0.844   1.218  -0.688  1.00  0.00     0.077 H 
HETATM   12  H6  UNL     1       0.629   0.655   1.024  1.00  0.00     0.077 H 
HETATM   13  H7  UNL     1       3.398  -1.259  -0.217  1.00  0.00     0.066 H 
HETATM   14  H8  UNL     1       3.092   0.463  -0.612  1.00  0.00     0.066 H 
HETATM   15  H9  UNL     1       2.848  -0.162   1.089  1.00  0.00     0.066 H 
HETATM   16  H10 UNL     1      -2.331  -1.388   0.274  1.00  0.00     0.274 HD
HETATM   17  H11 UNL     1      -1.295  -0.844   1.514  1.00  0.00     0.274 HD
HETATM   18  H12 UNL     1      -0.748  -1.977   0.362  1.00  0.00     0.274 HD
TER      19      UNL     1 
ENDMDL
