REMARK FAKE_HEAD_ATOM=C1_O1
REMARK REAL_HEAD_ATOM=C2_C3
REMARK DUMMY_ATOM=C1_H1_H2_H3_O1
REMARK TORSION=H4_C2_C3_C4
MODEL 0
HETATM    1  C1  UNL     1       2.002   0.438   0.056  1.00  0.00     0.004 C 
HETATM    2  O1  UNL     1       0.903   0.180  -0.790  1.00  0.00    -0.393 OA
HETATM    3  C2  UNL     1       0.113  -0.871  -0.260  1.00  0.00     0.045 C 
HETATM    4  C3  UNL     1      -1.042  -0.347   0.607  1.00  0.00     0.079 A 
HETATM    5  C4  UNL     1      -2.018   0.528  -0.082  1.00  0.00     0.046 A 
HETATM    6  O2  UNL     1      -1.034   1.051   0.781  1.00  0.00    -0.379 OA
HETATM    7  H1  UNL     1       1.677   0.648   1.099  1.00  0.00     0.066 H 
HETATM    8  H2  UNL     1       2.534   1.337  -0.319  1.00  0.00     0.066 H 
HETATM    9  H3  UNL     1       2.720  -0.411   0.038  1.00  0.00     0.066 H 
HETATM   10  H4  UNL     1      -0.323  -1.437  -1.110  1.00  0.00     0.078 H 
HETATM   11  H5  UNL     1       0.705  -1.615   0.325  1.00  0.00     0.078 H 
HETATM   12  H6  UNL     1      -1.402  -0.901   1.499  1.00  0.00     0.089 H 
HETATM   13  H7  UNL     1      -1.811   0.804  -1.138  1.00  0.00     0.078 H 
HETATM   14  H8  UNL     1      -3.027   0.593   0.375  1.00  0.00     0.078 H 
TER      15      UNL     1 
ENDMDL
