REMARK FAKE_HEAD_ATOM=C6_O1
REMARK REAL_HEAD_ATOM=C5_C4
REMARK DUMMY_ATOM=C6_H12_H13_H14_O1
REMARK TORSION=H10_C5_C4_C3
REMARK TORSION=C5_C4_C3_C2
REMARK TORSION=C4_C3_C2_C1
MODEL 0
HETATM    1  C1  UNL     1      -2.942   1.381  -0.493  1.00  0.00    -0.077 C 
HETATM    2  C2  UNL     1      -2.199   0.052  -0.387  1.00  0.00    -0.068 C 
HETATM    3  C3  UNL     1      -0.761   0.259   0.102  1.00  0.00    -0.064 C 
HETATM    4  C4  UNL     1      -0.018  -1.080   0.206  1.00  0.00    -0.045 C 
HETATM    5  C5  UNL     1       1.413  -0.896   0.715  1.00  0.00     0.019 C 
HETATM    6  O1  UNL     1       2.163  -0.159  -0.228  1.00  0.00    -0.396 OA
HETATM    7  C6  UNL     1       3.474   0.024   0.258  1.00  0.00     0.004 C 
HETATM    8  H1  UNL     1      -2.988   1.878   0.499  1.00  0.00     0.027 H 
HETATM    9  H2  UNL     1      -3.978   1.200  -0.849  1.00  0.00     0.027 H 
HETATM   10  H3  UNL     1      -2.431   2.052  -1.216  1.00  0.00     0.027 H 
HETATM   11  H4  UNL     1      -2.744  -0.609   0.321  1.00  0.00     0.032 H 
HETATM   12  H5  UNL     1      -2.189  -0.435  -1.387  1.00  0.00     0.032 H 
HETATM   13  H6  UNL     1      -0.779   0.749   1.100  1.00  0.00     0.033 H 
HETATM   14  H7  UNL     1      -0.225   0.926  -0.609  1.00  0.00     0.033 H 
HETATM   15  H8  UNL     1       0.010  -1.574  -0.790  1.00  0.00     0.036 H 
HETATM   16  H9  UNL     1      -0.562  -1.748   0.909  1.00  0.00     0.036 H 
HETATM   17  H10 UNL     1       1.857  -1.908   0.857  1.00  0.00     0.074 H 
HETATM   18  H11 UNL     1       1.381  -0.375   1.700  1.00  0.00     0.074 H 
HETATM   19  H12 UNL     1       3.988  -0.951   0.411  1.00  0.00     0.066 H 
HETATM   20  H13 UNL     1       4.054   0.594  -0.496  1.00  0.00     0.066 H 
HETATM   21  H14 UNL     1       3.474   0.617   1.200  1.00  0.00     0.066 H 
TER      22      UNL     1 
ENDMDL
