REMARK FAKE_HEAD_ATOM=C6_O1
REMARK REAL_HEAD_ATOM=C2_C3
REMARK DUMMY_ATOM=C6_H10_H11_H12_O1
REMARK TORSION=C1_C2_C3_C4
REMARK TORSION=C2_C3_C4_C5
MODEL 0
HETATM    1  C1  UNL     1      -0.453  -1.127   0.847  1.00  0.00    -0.052 C 
HETATM    2  C2  UNL     1      -0.415  -0.008  -0.202  1.00  0.00     0.037 C 
HETATM    3  C3  UNL     1       0.275  -0.485  -1.493  1.00  0.00    -0.027 C 
HETATM    4  C4  UNL     1       1.735  -0.797  -1.291  1.00  0.00    -0.110 C 
HETATM    5  C5  UNL     1       2.638   0.164  -1.076  1.00  0.00    -0.125 C 
HETATM    6  O1  UNL     1      -1.744   0.366  -0.526  1.00  0.00    -0.391 OA
HETATM    7  C6  UNL     1      -2.124   1.530   0.175  1.00  0.00     0.004 C 
HETATM    8  H1  UNL     1       0.577  -1.434   1.130  1.00  0.00     0.030 H 
HETATM    9  H2  UNL     1      -1.000  -2.010   0.454  1.00  0.00     0.030 H 
HETATM   10  H3  UNL     1      -0.968  -0.772   1.764  1.00  0.00     0.030 H 
HETATM   11  H4  UNL     1       0.186   0.840   0.210  1.00  0.00     0.083 H 
HETATM   12  H5  UNL     1      -0.239  -1.395  -1.874  1.00  0.00     0.042 H 
HETATM   13  H6  UNL     1       0.179   0.299  -2.275  1.00  0.00     0.042 H 
HETATM   14  H7  UNL     1       2.066  -1.830  -1.352  1.00  0.00     0.075 H 
HETATM   15  H8  UNL     1       2.343   1.208  -1.031  1.00  0.00     0.066 H 
HETATM   16  H9  UNL     1       3.684  -0.093  -0.948  1.00  0.00     0.066 H 
HETATM   17  H10 UNL     1      -3.192   1.740  -0.038  1.00  0.00     0.066 H 
HETATM   18  H11 UNL     1      -1.531   2.407  -0.169  1.00  0.00     0.066 H 
HETATM   19  H12 UNL     1      -2.018   1.396   1.274  1.00  0.00     0.066 H 
TER      20      UNL     1 
ENDMDL
