REMARK FAKE_HEAD_ATOM=C5_O2
REMARK REAL_HEAD_ATOM=C4_C3
REMARK DUMMY_ATOM=C5_H6_H7_H8_O2
REMARK TORSION=H4_C4_C3_C2
REMARK TORSION=C3_C2_C1_O1
REMARK TORSION=C2_C1_O1_H1
MODEL 0
HETATM    1  O1  UNL     1       3.316   1.041   1.096  1.00  0.00    -0.389 OA
HETATM    2  C1  UNL     1       2.900  -0.292   0.980  1.00  0.00     0.071 C 
HETATM    3  C2  UNL     1       1.534  -0.347   0.450  1.00  0.00    -0.079 C 
HETATM    4  C3  UNL     1       0.411  -0.392   0.015  1.00  0.00    -0.078 C 
HETATM    5  C4  UNL     1      -0.953  -0.446  -0.514  1.00  0.00     0.073 C 
HETATM    6  O2  UNL     1      -1.742   0.507   0.161  1.00  0.00    -0.384 OA
HETATM    7  C5  UNL     1      -3.058   0.462  -0.343  1.00  0.00     0.005 C 
HETATM    8  H1  UNL     1       3.559   1.344   0.182  1.00  0.00     0.210 HD
HETATM    9  H2  UNL     1       3.584  -0.863   0.313  1.00  0.00     0.093 H 
HETATM   10  H3  UNL     1       2.914  -0.763   1.984  1.00  0.00     0.093 H 
HETATM   11  H4  UNL     1      -0.907  -0.227  -1.605  1.00  0.00     0.093 H 
HETATM   12  H5  UNL     1      -1.343  -1.476  -0.352  1.00  0.00     0.093 H 
HETATM   13  H6  UNL     1      -3.085   0.719  -1.425  1.00  0.00     0.066 H 
HETATM   14  H7  UNL     1      -3.523  -0.534  -0.168  1.00  0.00     0.066 H 
HETATM   15  H8  UNL     1      -3.669   1.215   0.196  1.00  0.00     0.066 H 
TER      16      UNL     1 
ENDMDL
