REMARK FAKE_HEAD_ATOM=C10_O1
REMARK REAL_HEAD_ATOM=C9_C8
REMARK DUMMY_ATOM=C10_H20_H21_H22_O1
REMARK TORSION=H18_C9_C8_C7
REMARK TORSION=C9_C8_C7_C6
REMARK TORSION=C8_C7_C6_C5
REMARK TORSION=C7_C6_C5_C4
REMARK TORSION=C6_C5_C4_C3
REMARK TORSION=C5_C4_C3_C2
REMARK TORSION=C4_C3_C2_C1
MODEL 0
HETATM    1  C1  UNL     1      -5.161   0.918   0.756  1.00  0.00    -0.077 C 
HETATM    2  C2  UNL     1      -4.762  -0.184  -0.225  1.00  0.00    -0.069 C 
HETATM    3  C3  UNL     1      -3.428  -0.853   0.143  1.00  0.00    -0.065 C 
HETATM    4  C4  UNL     1      -2.222   0.069  -0.086  1.00  0.00    -0.065 C 
HETATM    5  C5  UNL     1      -0.906  -0.673   0.174  1.00  0.00    -0.065 C 
HETATM    6  C6  UNL     1       0.300   0.249  -0.044  1.00  0.00    -0.065 C 
HETATM    7  C7  UNL     1       1.616  -0.495   0.215  1.00  0.00    -0.063 C 
HETATM    8  C8  UNL     1       2.821   0.428  -0.003  1.00  0.00    -0.045 C 
HETATM    9  C9  UNL     1       4.138  -0.311   0.256  1.00  0.00     0.019 C 
HETATM   10  O1  UNL     1       5.230   0.579   0.125  1.00  0.00    -0.396 OA
HETATM   11  C10 UNL     1       5.801   0.474  -1.161  1.00  0.00     0.004 C 
HETATM   12  H1  UNL     1      -6.181   1.279   0.509  1.00  0.00     0.027 H 
HETATM   13  H2  UNL     1      -4.464   1.778   0.686  1.00  0.00     0.027 H 
HETATM   14  H3  UNL     1      -5.166   0.529   1.796  1.00  0.00     0.027 H 
HETATM   15  H4  UNL     1      -5.557  -0.961  -0.218  1.00  0.00     0.032 H 
HETATM   16  H5  UNL     1      -4.709   0.234  -1.254  1.00  0.00     0.032 H 
HETATM   17  H6  UNL     1      -3.313  -1.759  -0.492  1.00  0.00     0.033 H 
HETATM   18  H7  UNL     1      -3.455  -1.187   1.203  1.00  0.00     0.033 H 
HETATM   19  H8  UNL     1      -2.233   0.439  -1.135  1.00  0.00     0.033 H 
HETATM   20  H9  UNL     1      -2.284   0.942   0.599  1.00  0.00     0.033 H 
HETATM   21  H10 UNL     1      -0.897  -1.049   1.221  1.00  0.00     0.033 H 
HETATM   22  H11 UNL     1      -0.832  -1.544  -0.515  1.00  0.00     0.033 H 
HETATM   23  H12 UNL     1       0.227   1.119   0.646  1.00  0.00     0.033 H 
HETATM   24  H13 UNL     1       0.290   0.625  -1.091  1.00  0.00     0.033 H 
HETATM   25  H14 UNL     1       1.625  -0.872   1.262  1.00  0.00     0.033 H 
HETATM   26  H15 UNL     1       1.689  -1.364  -0.475  1.00  0.00     0.033 H 
HETATM   27  H16 UNL     1       2.753   1.298   0.687  1.00  0.00     0.036 H 
HETATM   28  H17 UNL     1       2.810   0.807  -1.047  1.00  0.00     0.036 H 
HETATM   29  H18 UNL     1       4.134  -0.686   1.302  1.00  0.00     0.074 H 
HETATM   30  H19 UNL     1       4.214  -1.212  -0.400  1.00  0.00     0.074 H 
HETATM   31  H20 UNL     1       6.279  -0.521  -1.300  1.00  0.00     0.066 H 
HETATM   32  H21 UNL     1       5.048   0.656  -1.959  1.00  0.00     0.066 H 
HETATM   33  H22 UNL     1       6.592   1.245  -1.262  1.00  0.00     0.066 H 
TER      34      UNL     1 
ENDMDL
