REMARK FAKE_HEAD_ATOM=C6_O1
REMARK REAL_HEAD_ATOM=C2_C1
REMARK DUMMY_ATOM=C6_H10_H11_H12_O1
REMARK TORSION=C1_C2_C3_C4
REMARK TORSION=C2_C3_C4_C5
MODEL 0
HETATM    1  C1  UNL     1      -1.079  -0.829  -1.327  1.00  0.00    -0.052 C 
HETATM    2  C2  UNL     1      -0.570  -0.168  -0.043  1.00  0.00     0.037 C 
HETATM    3  C3  UNL     1       0.856  -0.650   0.296  1.00  0.00    -0.027 C 
HETATM    4  C4  UNL     1       1.873  -0.204  -0.721  1.00  0.00    -0.110 C 
HETATM    5  C5  UNL     1       2.243   1.075  -0.832  1.00  0.00    -0.125 C 
HETATM    6  O1  UNL     1      -1.446  -0.528   1.013  1.00  0.00    -0.391 OA
HETATM    7  C6  UNL     1      -1.657   0.564   1.881  1.00  0.00     0.004 C 
HETATM    8  H1  UNL     1      -1.081  -1.935  -1.224  1.00  0.00     0.030 H 
HETATM    9  H2  UNL     1      -0.445  -0.546  -2.194  1.00  0.00     0.030 H 
HETATM   10  H3  UNL     1      -2.117  -0.491  -1.534  1.00  0.00     0.030 H 
HETATM   11  H4  UNL     1      -0.553   0.933  -0.235  1.00  0.00     0.083 H 
HETATM   12  H5  UNL     1       1.158  -0.266   1.294  1.00  0.00     0.042 H 
HETATM   13  H6  UNL     1       0.867  -1.760   0.356  1.00  0.00     0.042 H 
HETATM   14  H7  UNL     1       2.339  -0.947  -1.361  1.00  0.00     0.075 H 
HETATM   15  H8  UNL     1       1.811   1.839  -0.193  1.00  0.00     0.066 H 
HETATM   16  H9  UNL     1       2.988   1.363  -1.567  1.00  0.00     0.066 H 
HETATM   17  H10 UNL     1      -0.698   0.961   2.281  1.00  0.00     0.066 H 
HETATM   18  H11 UNL     1      -2.265   0.219   2.743  1.00  0.00     0.066 H 
HETATM   19  H12 UNL     1      -2.226   1.370   1.367  1.00  0.00     0.066 H 
TER      20      UNL     1 
ENDMDL
