REMARK FAKE_HEAD_ATOM=C4_O1
REMARK REAL_HEAD_ATOM=C3_C2
REMARK DUMMY_ATOM=C4_H10_H8_H9_O1
REMARK TORSION=H6_C3_C2_C1
MODEL 0
HETATM    1  C1  UNL     1      -1.858   0.052   0.512  1.00  0.00    -0.075 C 
HETATM    2  C2  UNL     1      -0.787  -0.820  -0.138  1.00  0.00    -0.049 C 
HETATM    3  C3  UNL     1       0.102  -0.017  -1.097  1.00  0.00     0.019 C 
HETATM    4  O1  UNL     1       0.775   1.023  -0.411  1.00  0.00    -0.396 OA
HETATM    5  C4  UNL     1       2.070   0.609  -0.036  1.00  0.00     0.004 C 
HETATM    6  H1  UNL     1      -2.499   0.521  -0.265  1.00  0.00     0.027 H 
HETATM    7  H2  UNL     1      -2.498  -0.575   1.169  1.00  0.00     0.027 H 
HETATM    8  H3  UNL     1      -1.390   0.847   1.131  1.00  0.00     0.027 H 
HETATM    9  H4  UNL     1      -0.164  -1.289   0.653  1.00  0.00     0.035 H 
HETATM   10  H5  UNL     1      -1.284  -1.635  -0.707  1.00  0.00     0.035 H 
HETATM   11  H6  UNL     1      -0.542   0.443  -1.877  1.00  0.00     0.074 H 
HETATM   12  H7  UNL     1       0.789  -0.710  -1.639  1.00  0.00     0.074 H 
HETATM   13  H8  UNL     1       2.041  -0.313   0.586  1.00  0.00     0.066 H 
HETATM   14  H9  UNL     1       2.535   1.411   0.574  1.00  0.00     0.066 H 
HETATM   15  H10 UNL     1       2.710   0.453  -0.932  1.00  0.00     0.066 H 
TER      16      UNL     1 
ENDMDL
