REMARK FAKE_HEAD_ATOM=C4_O1
REMARK REAL_HEAD_ATOM=C2_C3
REMARK DUMMY_ATOM=C4_H5_H6_H7_O1
REMARK TORSION=C1_C2_C3_N1
MODEL 0
HETATM    1  C1  UNL     1      -1.457  -0.421  -0.033  1.00  0.00    -0.041 C 
HETATM    2  C2  UNL     1      -0.237   0.488  -0.192  1.00  0.00     0.117 C 
HETATM    3  C3  UNL     1      -0.636   1.881   0.039  1.00  0.00     0.090 C 
HETATM    4  N1  UNL     1      -0.950   2.980   0.222  1.00  0.00    -0.195 NA
HETATM    5  O1  UNL     1       0.748   0.142   0.764  1.00  0.00    -0.377 OA
HETATM    6  C4  UNL     1       1.717  -0.711   0.193  1.00  0.00     0.006 C 
HETATM    7  H1  UNL     1      -1.858  -0.358   1.002  1.00  0.00     0.032 H 
HETATM    8  H2  UNL     1      -1.178  -1.474  -0.241  1.00  0.00     0.032 H 
HETATM    9  H3  UNL     1      -2.255  -0.126  -0.749  1.00  0.00     0.032 H 
HETATM   10  H4  UNL     1       0.125   0.428  -1.247  1.00  0.00     0.106 H 
HETATM   11  H5  UNL     1       2.421  -1.030   0.989  1.00  0.00     0.066 H 
HETATM   12  H6  UNL     1       1.254  -1.627  -0.235  1.00  0.00     0.066 H 
HETATM   13  H7  UNL     1       2.306  -0.174  -0.584  1.00  0.00     0.066 H 
TER      14      UNL     1 
ENDMDL
