REMARK FAKE_HEAD_ATOM=C5_O3
REMARK REAL_HEAD_ATOM=C4_C3
REMARK DUMMY_ATOM=C5_H10_H11_H12_O3
REMARK TORSION=H8_C4_C3_C1
REMARK TORSION=C4_C3_C1_C2
REMARK TORSION=C3_C1_C2_O2
REMARK TORSION=C1_C2_O2_H5
REMARK TORSION=C3_C1_O1_H1
MODEL 0
HETATM    1  O1  UNL     1      -1.611  -0.910   1.265  1.00  0.00    -0.393 OA
HETATM    2  C1  UNL     1      -1.101   0.046   0.367  1.00  0.00     0.058 C 
HETATM    3  C2  UNL     1      -2.222   0.589  -0.534  1.00  0.00     0.041 C 
HETATM    4  O2  UNL     1      -3.261   1.122   0.242  1.00  0.00    -0.398 OA
HETATM    5  C3  UNL     1       0.048  -0.544  -0.477  1.00  0.00    -0.019 C 
HETATM    6  C4  UNL     1       1.216  -1.044   0.386  1.00  0.00     0.021 C 
HETATM    7  O3  UNL     1       1.745   0.002   1.181  1.00  0.00    -0.396 OA
HETATM    8  C5  UNL     1       2.853   0.596   0.542  1.00  0.00     0.004 C 
HETATM    9  H1  UNL     1      -1.963  -1.668   0.728  1.00  0.00     0.210 HD
HETATM   10  H2  UNL     1      -0.702   0.897   0.960  1.00  0.00     0.086 H 
HETATM   11  H3  UNL     1      -2.634  -0.232  -1.160  1.00  0.00     0.077 H 
HETATM   12  H4  UNL     1      -1.820   1.368  -1.222  1.00  0.00     0.077 H 
HETATM   13  H5  UNL     1      -2.942   1.999   0.580  1.00  0.00     0.209 HD
HETATM   14  H6  UNL     1       0.423   0.227  -1.184  1.00  0.00     0.040 H 
HETATM   15  H7  UNL     1      -0.334  -1.394  -1.084  1.00  0.00     0.040 H 
HETATM   16  H8  UNL     1       0.846  -1.841   1.065  1.00  0.00     0.074 H 
HETATM   17  H9  UNL     1       1.978  -1.534  -0.266  1.00  0.00     0.074 H 
HETATM   18  H10 UNL     1       2.589   0.974  -0.470  1.00  0.00     0.066 H 
HETATM   19  H11 UNL     1       3.188   1.463   1.147  1.00  0.00     0.066 H 
HETATM   20  H12 UNL     1       3.703  -0.119   0.480  1.00  0.00     0.066 H 
TER      21      UNL     1 
ENDMDL
