REMARK FAKE_HEAD_ATOM=C6_O1
REMARK REAL_HEAD_ATOM=C5_C4
REMARK DUMMY_ATOM=C6_H11_H12_H13_O1
REMARK TORSION=H10_C5_C4_C3
REMARK TORSION=C5_C4_C3_C2
REMARK TORSION=C4_C3_C2_C1
MODEL 0
HETATM    1  C1  UNL     1       3.390   0.048  -0.287  1.00  0.00    -0.077 C 
HETATM    2  C2  UNL     1       1.897   0.353  -0.373  1.00  0.00    -0.068 C 
HETATM    3  C3  UNL     1       1.209   0.134   0.982  1.00  0.00    -0.063 C 
HETATM    4  C4  UNL     1      -0.250   0.629   1.006  1.00  0.00    -0.041 C 
HETATM    5  C5  UNL     1      -1.209  -0.086   0.030  1.00  0.00     0.034 C 
HETATM    6  O1  UNL     1      -2.494   0.496   0.184  1.00  0.00    -0.391 OA
HETATM    7  C6  UNL     1      -3.121   0.674  -1.068  1.00  0.00     0.004 C 
HETATM    8  C7  UNL     1      -1.308  -1.587   0.331  1.00  0.00    -0.052 C 
HETATM    9  H1  UNL     1       3.550  -1.006   0.027  1.00  0.00     0.027 H 
HETATM   10  H2  UNL     1       3.882   0.727   0.442  1.00  0.00     0.027 H 
HETATM   11  H3  UNL     1       3.858   0.198  -1.282  1.00  0.00     0.027 H 
HETATM   12  H4  UNL     1       1.764   1.407  -0.699  1.00  0.00     0.032 H 
HETATM   13  H5  UNL     1       1.451  -0.316  -1.138  1.00  0.00     0.032 H 
HETATM   14  H6  UNL     1       1.259  -0.939   1.267  1.00  0.00     0.033 H 
HETATM   15  H7  UNL     1       1.765   0.700   1.762  1.00  0.00     0.033 H 
HETATM   16  H8  UNL     1      -0.258   1.717   0.777  1.00  0.00     0.036 H 
HETATM   17  H9  UNL     1      -0.640   0.516   2.042  1.00  0.00     0.036 H 
HETATM   18  H10 UNL     1      -0.803   0.041  -1.001  1.00  0.00     0.082 H 
HETATM   19  H11 UNL     1      -4.152   1.047  -0.899  1.00  0.00     0.066 H 
HETATM   20  H12 UNL     1      -2.580   1.435  -1.673  1.00  0.00     0.066 H 
HETATM   21  H13 UNL     1      -3.195  -0.285  -1.626  1.00  0.00     0.066 H 
HETATM   22  H14 UNL     1      -2.103  -2.047  -0.293  1.00  0.00     0.030 H 
HETATM   23  H15 UNL     1      -1.558  -1.756   1.400  1.00  0.00     0.030 H 
HETATM   24  H16 UNL     1      -0.355  -2.100   0.088  1.00  0.00     0.030 H 
TER      25      UNL     1 
ENDMDL
