REMARK FAKE_HEAD_ATOM=C18_O1
REMARK REAL_HEAD_ATOM=C17_C16
REMARK DUMMY_ATOM=C18_H36_H37_H38_O1
REMARK TORSION=H34_C17_C16_C15
REMARK TORSION=C17_C16_C15_C14
REMARK TORSION=C16_C15_C14_C13
REMARK TORSION=C15_C14_C13_C12
REMARK TORSION=C14_C13_C12_C11
REMARK TORSION=C13_C12_C11_C10
REMARK TORSION=C12_C11_C10_C9
REMARK TORSION=C11_C10_C9_C8
REMARK TORSION=C10_C9_C8_C7
REMARK TORSION=C9_C8_C7_C6
REMARK TORSION=C8_C7_C6_C5
REMARK TORSION=C7_C6_C5_C4
REMARK TORSION=C6_C5_C4_C3
REMARK TORSION=C5_C4_C3_C2
REMARK TORSION=C4_C3_C2_C1
MODEL 0
HETATM    1  C1  UNL     1      -8.925  -1.417  -0.787  1.00  0.00    -0.077 C 
HETATM    2  C2  UNL     1      -7.684  -1.639   0.073  1.00  0.00    -0.069 C 
HETATM    3  C3  UNL     1      -6.656  -0.521  -0.137  1.00  0.00    -0.065 C 
HETATM    4  C4  UNL     1      -5.407  -0.756   0.726  1.00  0.00    -0.065 C 
HETATM    5  C5  UNL     1      -4.398   0.401   0.637  1.00  0.00    -0.065 C 
HETATM    6  C6  UNL     1      -3.605   0.393  -0.681  1.00  0.00    -0.065 C 
HETATM    7  C7  UNL     1      -2.672   1.609  -0.828  1.00  0.00    -0.065 C 
HETATM    8  C8  UNL     1      -1.579   1.735   0.250  1.00  0.00    -0.065 C 
HETATM    9  C9  UNL     1      -0.605   0.545   0.257  1.00  0.00    -0.065 C 
HETATM   10  C10 UNL     1       0.531   0.718   1.278  1.00  0.00    -0.065 C 
HETATM   11  C11 UNL     1       1.565   1.774   0.847  1.00  0.00    -0.065 C 
HETATM   12  C12 UNL     1       2.813   1.771   1.756  1.00  0.00    -0.065 C 
HETATM   13  C13 UNL     1       4.029   1.068   1.128  1.00  0.00    -0.065 C 
HETATM   14  C14 UNL     1       3.819  -0.446   0.956  1.00  0.00    -0.065 C 
HETATM   15  C15 UNL     1       5.114  -1.182   0.578  1.00  0.00    -0.063 C 
HETATM   16  C16 UNL     1       5.587  -0.849  -0.847  1.00  0.00    -0.045 C 
HETATM   17  C17 UNL     1       6.785  -1.711  -1.264  1.00  0.00     0.019 C 
HETATM   18  O1  UNL     1       7.879  -1.518  -0.385  1.00  0.00    -0.396 OA
HETATM   19  C18 UNL     1       8.765  -0.552  -0.906  1.00  0.00     0.004 C 
HETATM   20  H1  UNL     1      -9.410  -0.453  -0.522  1.00  0.00     0.027 H 
HETATM   21  H2  UNL     1      -9.651  -2.239  -0.613  1.00  0.00     0.027 H 
HETATM   22  H3  UNL     1      -8.652  -1.406  -1.864  1.00  0.00     0.027 H 
HETATM   23  H4  UNL     1      -7.990  -1.673   1.141  1.00  0.00     0.032 H 
HETATM   24  H5  UNL     1      -7.232  -2.619  -0.195  1.00  0.00     0.032 H 
HETATM   25  H6  UNL     1      -6.374  -0.493  -1.211  1.00  0.00     0.033 H 
HETATM   26  H7  UNL     1      -7.116   0.454   0.135  1.00  0.00     0.033 H 
HETATM   27  H8  UNL     1      -5.723  -0.855   1.788  1.00  0.00     0.033 H 
HETATM   28  H9  UNL     1      -4.915  -1.710   0.432  1.00  0.00     0.033 H 
HETATM   29  H10 UNL     1      -4.924   1.373   0.764  1.00  0.00     0.033 H 
HETATM   30  H11 UNL     1      -3.689   0.286   1.484  1.00  0.00     0.033 H 
HETATM   31  H12 UNL     1      -4.312   0.422  -1.536  1.00  0.00     0.033 H 
HETATM   32  H13 UNL     1      -3.028  -0.550  -0.773  1.00  0.00     0.033 H 
HETATM   33  H14 UNL     1      -2.186   1.561  -1.826  1.00  0.00     0.033 H 
HETATM   34  H15 UNL     1      -3.288   2.535  -0.814  1.00  0.00     0.033 H 
HETATM   35  H16 UNL     1      -1.017   2.667   0.033  1.00  0.00     0.033 H 
HETATM   36  H17 UNL     1      -2.038   1.861   1.253  1.00  0.00     0.033 H 
HETATM   37  H18 UNL     1      -0.180   0.391  -0.758  1.00  0.00     0.033 H 
HETATM   38  H19 UNL     1      -1.160  -0.375   0.536  1.00  0.00     0.033 H 
HETATM   39  H20 UNL     1       0.108   0.991   2.270  1.00  0.00     0.033 H 
HETATM   40  H21 UNL     1       1.033  -0.265   1.396  1.00  0.00     0.033 H 
HETATM   41  H22 UNL     1       1.855   1.619  -0.215  1.00  0.00     0.033 H 
HETATM   42  H23 UNL     1       1.094   2.777   0.914  1.00  0.00     0.033 H 
HETATM   43  H24 UNL     1       3.107   2.827   1.945  1.00  0.00     0.033 H 
HETATM   44  H25 UNL     1       2.588   1.327   2.751  1.00  0.00     0.033 H 
HETATM   45  H26 UNL     1       4.253   1.537   0.146  1.00  0.00     0.033 H 
HETATM   46  H27 UNL     1       4.904   1.241   1.791  1.00  0.00     0.033 H 
HETATM   47  H28 UNL     1       3.048  -0.638   0.179  1.00  0.00     0.033 H 
HETATM   48  H29 UNL     1       3.453  -0.871   1.916  1.00  0.00     0.033 H 
HETATM   49  H30 UNL     1       5.912  -0.936   1.311  1.00  0.00     0.033 H 
HETATM   50  H31 UNL     1       4.919  -2.275   0.646  1.00  0.00     0.033 H 
HETATM   51  H32 UNL     1       4.757  -1.031  -1.564  1.00  0.00     0.036 H 
HETATM   52  H33 UNL     1       5.869   0.222  -0.915  1.00  0.00     0.036 H 
HETATM   53  H34 UNL     1       6.489  -2.781  -1.216  1.00  0.00     0.074 H 
HETATM   54  H35 UNL     1       7.034  -1.513  -2.334  1.00  0.00     0.074 H 
HETATM   55  H36 UNL     1       9.561  -0.362  -0.157  1.00  0.00     0.066 H 
HETATM   56  H37 UNL     1       8.250   0.414  -1.101  1.00  0.00     0.066 H 
HETATM   57  H38 UNL     1       9.256  -0.924  -1.832  1.00  0.00     0.066 H 
TER      58      UNL     1 
ENDMDL
