REMARK FAKE_HEAD_ATOM=C5_O3
REMARK REAL_HEAD_ATOM=C3_C2
REMARK DUMMY_ATOM=C5_H10_H11_H12_O3
REMARK TORSION=H6_C3_C4_O2
REMARK TORSION=C3_C4_O2_H9
REMARK TORSION=H6_C3_C2_C1
REMARK TORSION=C3_C2_C1_O1
REMARK TORSION=C2_C1_O1_H1
MODEL 0
HETATM    1  O1  UNL     1       2.557   0.524  -0.292  1.00  0.00    -0.401 OA
HETATM    2  C1  UNL     1       1.925  -0.727  -0.304  1.00  0.00     0.019 C 
HETATM    3  C2  UNL     1       0.848  -0.814   0.791  1.00  0.00    -0.019 C 
HETATM    4  C3  UNL     1      -0.489  -0.125   0.440  1.00  0.00     0.060 C 
HETATM    5  C4  UNL     1      -0.346   1.400   0.273  1.00  0.00     0.041 C 
HETATM    6  O2  UNL     1       0.142   1.716  -1.003  1.00  0.00    -0.398 OA
HETATM    7  O3  UNL     1      -1.025  -0.710  -0.737  1.00  0.00    -0.389 OA
HETATM    8  C5  UNL     1      -2.433  -0.770  -0.672  1.00  0.00     0.005 C 
HETATM    9  H1  UNL     1       3.165   0.530   0.493  1.00  0.00     0.209 HD
HETATM   10  H2  UNL     1       2.681  -1.529  -0.140  1.00  0.00     0.074 H 
HETATM   11  H3  UNL     1       1.479  -0.900  -1.306  1.00  0.00     0.074 H 
HETATM   12  H4  UNL     1       1.247  -0.402   1.743  1.00  0.00     0.040 H 
HETATM   13  H5  UNL     1       0.634  -1.890   0.975  1.00  0.00     0.040 H 
HETATM   14  H6  UNL     1      -1.143  -0.299   1.331  1.00  0.00     0.086 H 
HETATM   15  H7  UNL     1      -1.343   1.874   0.408  1.00  0.00     0.077 H 
HETATM   16  H8  UNL     1       0.332   1.810   1.055  1.00  0.00     0.077 H 
HETATM   17  H9  UNL     1       0.223   2.704  -1.030  1.00  0.00     0.209 HD
HETATM   18  H10 UNL     1      -2.815  -1.157  -1.639  1.00  0.00     0.066 H 
HETATM   19  H11 UNL     1      -2.877   0.237  -0.514  1.00  0.00     0.066 H 
HETATM   20  H12 UNL     1      -2.762  -1.471   0.125  1.00  0.00     0.066 H 
TER      21      UNL     1 
ENDMDL
