REMARK FAKE_HEAD_ATOM=C7_O1
REMARK REAL_HEAD_ATOM=C6_C5
REMARK DUMMY_ATOM=C7_H12_H13_H14_O1
REMARK TORSION=H10_C6_C5_C4
REMARK TORSION=C6_C5_C4_C3
REMARK TORSION=C4_C3_C2_C1
MODEL 0
HETATM    1  C1  UNL     1      -2.519  -0.908   0.045  1.00  0.00    -0.073 C 
HETATM    2  C2  UNL     1      -2.571   0.611  -0.102  1.00  0.00    -0.053 C 
HETATM    3  C3  UNL     1      -1.483   1.284   0.696  1.00  0.00    -0.107 C 
HETATM    4  C4  UNL     1      -0.186   1.351   0.339  1.00  0.00    -0.105 C 
HETATM    5  C5  UNL     1       0.409   0.748  -0.912  1.00  0.00    -0.030 C 
HETATM    6  C6  UNL     1       1.381  -0.378  -0.564  1.00  0.00     0.022 C 
HETATM    7  O1  UNL     1       2.483   0.147   0.147  1.00  0.00    -0.396 OA
HETATM    8  C7  UNL     1       3.365  -0.901   0.482  1.00  0.00     0.004 C 
HETATM    9  H1  UNL     1      -2.584  -1.192   1.117  1.00  0.00     0.027 H 
HETATM   10  H2  UNL     1      -1.583  -1.318  -0.384  1.00  0.00     0.027 H 
HETATM   11  H3  UNL     1      -3.378  -1.361  -0.494  1.00  0.00     0.027 H 
HETATM   12  H4  UNL     1      -2.521   0.905  -1.171  1.00  0.00     0.038 H 
HETATM   13  H5  UNL     1      -3.553   0.960   0.284  1.00  0.00     0.038 H 
HETATM   14  H6  UNL     1      -1.779   1.780   1.616  1.00  0.00     0.076 H 
HETATM   15  H7  UNL     1       0.493   1.875   1.006  1.00  0.00     0.076 H 
HETATM   16  H8  UNL     1      -0.364   0.356  -1.602  1.00  0.00     0.042 H 
HETATM   17  H9  UNL     1       0.956   1.544  -1.461  1.00  0.00     0.042 H 
HETATM   18  H10 UNL     1       0.844  -1.145   0.040  1.00  0.00     0.074 H 
HETATM   19  H11 UNL     1       1.722  -0.843  -1.518  1.00  0.00     0.074 H 
HETATM   20  H12 UNL     1       2.875  -1.641   1.153  1.00  0.00     0.066 H 
HETATM   21  H13 UNL     1       3.760  -1.403  -0.429  1.00  0.00     0.066 H 
HETATM   22  H14 UNL     1       4.230  -0.473   1.030  1.00  0.00     0.066 H 
TER      23      UNL     1 
ENDMDL
