REMARK FAKE_HEAD_ATOM=C5_O2
REMARK REAL_HEAD_ATOM=C4_C2
REMARK DUMMY_ATOM=C5_H10_H11_H12_O2
REMARK TORSION=H8_C4_C2_C3
REMARK TORSION=C4_C2_C3_O1
MODEL 0
HETATM    1  C1  UNL     1      -1.449  -1.684   0.045  1.00  0.00    -0.069 C 
HETATM    2  C2  UNL     1      -0.845  -0.293   0.277  1.00  0.00    -0.017 C 
HETATM    3  C3  UNL     1      -1.406   0.704  -0.759  1.00  0.00     0.022 C 
HETATM    4  O1  UNL     1      -0.999   2.015  -0.473  1.00  0.00    -0.400 OA
HETATM    5  C4  UNL     1       0.693  -0.367   0.223  1.00  0.00     0.024 C 
HETATM    6  O2  UNL     1       1.248   0.864   0.637  1.00  0.00    -0.396 OA
HETATM    7  C5  UNL     1       2.653   0.801   0.541  1.00  0.00     0.004 C 
HETATM    8  H1  UNL     1      -1.083  -2.396   0.815  1.00  0.00     0.028 H 
HETATM    9  H2  UNL     1      -1.173  -2.068  -0.960  1.00  0.00     0.028 H 
HETATM   10  H3  UNL     1      -2.557  -1.639   0.121  1.00  0.00     0.028 H 
HETATM   11  H4  UNL     1      -1.148   0.041   1.295  1.00  0.00     0.045 H 
HETATM   12  H5  UNL     1      -1.048   0.433  -1.776  1.00  0.00     0.074 H 
HETATM   13  H6  UNL     1      -2.519   0.655  -0.775  1.00  0.00     0.074 H 
HETATM   14  H7  UNL     1      -1.530   2.312   0.312  1.00  0.00     0.209 HD
HETATM   15  H8  UNL     1       1.033  -1.181   0.905  1.00  0.00     0.074 H 
HETATM   16  H9  UNL     1       1.007  -0.618  -0.818  1.00  0.00     0.074 H 
HETATM   17  H10 UNL     1       2.978   0.648  -0.512  1.00  0.00     0.066 H 
HETATM   18  H11 UNL     1       3.068   0.003   1.196  1.00  0.00     0.066 H 
HETATM   19  H12 UNL     1       3.074   1.769   0.884  1.00  0.00     0.066 H 
TER      20      UNL     1 
ENDMDL
