REMARK FAKE_HEAD_ATOM=C16_O1
REMARK REAL_HEAD_ATOM=C15_C14
REMARK DUMMY_ATOM=C16_H31_H32_H33_O1
REMARK TORSION=H30_C15_C14_C13
REMARK TORSION=C15_C14_C13_C12
REMARK TORSION=C14_C13_C12_C11
REMARK TORSION=C13_C12_C11_C10
REMARK TORSION=C12_C11_C10_C9
REMARK TORSION=C11_C10_C9_C8
REMARK TORSION=C10_C9_C8_C7
REMARK TORSION=C9_C8_C7_C6
REMARK TORSION=C8_C7_C6_C5
REMARK TORSION=C7_C6_C5_C4
REMARK TORSION=C6_C5_C4_C3
REMARK TORSION=C5_C4_C3_C2
REMARK TORSION=C4_C3_C2_C1
MODEL 0
HETATM    1  C1  UNL     1       7.466   0.129   1.983  1.00  0.00    -0.077 C 
HETATM    2  C2  UNL     1       6.134   0.073   1.241  1.00  0.00    -0.069 C 
HETATM    3  C3  UNL     1       6.314   0.417  -0.245  1.00  0.00    -0.065 C 
HETATM    4  C4  UNL     1       4.977   0.497  -0.998  1.00  0.00    -0.065 C 
HETATM    5  C5  UNL     1       4.302  -0.877  -1.154  1.00  0.00    -0.065 C 
HETATM    6  C6  UNL     1       3.126  -0.857  -2.147  1.00  0.00    -0.065 C 
HETATM    7  C7  UNL     1       1.977   0.100  -1.777  1.00  0.00    -0.065 C 
HETATM    8  C8  UNL     1       1.297  -0.267  -0.447  1.00  0.00    -0.065 C 
HETATM    9  C9  UNL     1       0.093   0.636  -0.132  1.00  0.00    -0.065 C 
HETATM   10  C10 UNL     1      -1.140   0.303  -0.987  1.00  0.00    -0.065 C 
HETATM   11  C11 UNL     1      -2.355   1.127  -0.539  1.00  0.00    -0.065 C 
HETATM   12  C12 UNL     1      -3.573   0.948  -1.463  1.00  0.00    -0.065 C 
HETATM   13  C13 UNL     1      -4.129  -0.489  -1.537  1.00  0.00    -0.063 C 
HETATM   14  C14 UNL     1      -4.506  -1.122  -0.181  1.00  0.00    -0.041 C 
HETATM   15  C15 UNL     1      -5.539  -0.336   0.652  1.00  0.00     0.034 C 
HETATM   16  O1  UNL     1      -5.747  -1.045   1.864  1.00  0.00    -0.391 OA
HETATM   17  C16 UNL     1      -5.812  -0.159   2.961  1.00  0.00     0.004 C 
HETATM   18  C17 UNL     1      -6.880  -0.212  -0.082  1.00  0.00    -0.052 C 
HETATM   19  H1  UNL     1       7.896   1.152   1.928  1.00  0.00     0.027 H 
HETATM   20  H2  UNL     1       8.183  -0.595   1.542  1.00  0.00     0.027 H 
HETATM   21  H3  UNL     1       7.308  -0.132   3.051  1.00  0.00     0.027 H 
HETATM   22  H4  UNL     1       5.716  -0.950   1.347  1.00  0.00     0.032 H 
HETATM   23  H5  UNL     1       5.430   0.794   1.712  1.00  0.00     0.032 H 
HETATM   24  H6  UNL     1       6.814   1.407  -0.328  1.00  0.00     0.033 H 
HETATM   25  H7  UNL     1       6.975  -0.335  -0.730  1.00  0.00     0.033 H 
HETATM   26  H8  UNL     1       4.300   1.198  -0.463  1.00  0.00     0.033 H 
HETATM   27  H9  UNL     1       5.176   0.919  -2.008  1.00  0.00     0.033 H 
HETATM   28  H10 UNL     1       3.956  -1.252  -0.169  1.00  0.00     0.033 H 
HETATM   29  H11 UNL     1       5.050  -1.606  -1.535  1.00  0.00     0.033 H 
HETATM   30  H12 UNL     1       2.720  -1.888  -2.235  1.00  0.00     0.033 H 
HETATM   31  H13 UNL     1       3.511  -0.575  -3.151  1.00  0.00     0.033 H 
HETATM   32  H14 UNL     1       2.345   1.147  -1.741  1.00  0.00     0.033 H 
HETATM   33  H15 UNL     1       1.233   0.046  -2.599  1.00  0.00     0.033 H 
HETATM   34  H16 UNL     1       2.028  -0.142   0.379  1.00  0.00     0.033 H 
HETATM   35  H17 UNL     1       0.978  -1.333  -0.460  1.00  0.00     0.033 H 
HETATM   36  H18 UNL     1      -0.170   0.494   0.939  1.00  0.00     0.033 H 
HETATM   37  H19 UNL     1       0.375   1.703  -0.270  1.00  0.00     0.033 H 
HETATM   38  H20 UNL     1      -0.929   0.524  -2.055  1.00  0.00     0.033 H 
HETATM   39  H21 UNL     1      -1.367  -0.780  -0.885  1.00  0.00     0.033 H 
HETATM   40  H22 UNL     1      -2.625   0.871   0.508  1.00  0.00     0.033 H 
HETATM   41  H23 UNL     1      -2.081   2.204  -0.549  1.00  0.00     0.033 H 
HETATM   42  H24 UNL     1      -4.378   1.639  -1.137  1.00  0.00     0.033 H 
HETATM   43  H25 UNL     1      -3.290   1.265  -2.491  1.00  0.00     0.033 H 
HETATM   44  H26 UNL     1      -3.381  -1.142  -2.034  1.00  0.00     0.033 H 
HETATM   45  H27 UNL     1      -5.017  -0.491  -2.204  1.00  0.00     0.033 H 
HETATM   46  H28 UNL     1      -4.904  -2.143  -0.376  1.00  0.00     0.036 H 
HETATM   47  H29 UNL     1      -3.585  -1.261   0.424  1.00  0.00     0.036 H 
HETATM   48  H30 UNL     1      -5.136   0.691   0.820  1.00  0.00     0.082 H 
HETATM   49  H31 UNL     1      -6.057  -0.741   3.873  1.00  0.00     0.066 H 
HETATM   50  H32 UNL     1      -6.609   0.604   2.821  1.00  0.00     0.066 H 
HETATM   51  H33 UNL     1      -4.828   0.333   3.127  1.00  0.00     0.066 H 
HETATM   52  H34 UNL     1      -6.780   0.434  -0.979  1.00  0.00     0.030 H 
HETATM   53  H35 UNL     1      -7.252  -1.213  -0.389  1.00  0.00     0.030 H 
HETATM   54  H36 UNL     1      -7.635   0.255   0.584  1.00  0.00     0.030 H 
TER      55      UNL     1 
ENDMDL
