REMARK FAKE_HEAD_ATOM=C3_O1
REMARK REAL_HEAD_ATOM=C2_C1
REMARK DUMMY_ATOM=C3_H6_H7_H8_O1
REMARK TORSION=H4_C2_C1_H1
MODEL 0
HETATM    1  C1  UNL     1      -1.565   0.624  -0.450  1.00  0.00    -0.056 C 
HETATM    2  C2  UNL     1      -0.482  -0.181   0.252  1.00  0.00     0.016 C 
HETATM    3  O1  UNL     1       0.775   0.407  -0.009  1.00  0.00    -0.396 OA
HETATM    4  C3  UNL     1       1.781  -0.337   0.641  1.00  0.00     0.004 C 
HETATM    5  H1  UNL     1      -1.385   0.629  -1.546  1.00  0.00     0.030 H 
HETATM    6  H2  UNL     1      -2.559   0.170  -0.251  1.00  0.00     0.030 H 
HETATM    7  H3  UNL     1      -1.565   1.670  -0.076  1.00  0.00     0.030 H 
HETATM    8  H4  UNL     1      -0.519  -1.225  -0.133  1.00  0.00     0.073 H 
HETATM    9  H5  UNL     1      -0.701  -0.179   1.345  1.00  0.00     0.073 H 
HETATM   10  H6  UNL     1       2.762   0.135   0.427  1.00  0.00     0.066 H 
HETATM   11  H7  UNL     1       1.820  -1.382   0.259  1.00  0.00     0.066 H 
HETATM   12  H8  UNL     1       1.638  -0.330   1.744  1.00  0.00     0.066 H 
TER      13      UNL     1 
ENDMDL
