REMARK FAKE_HEAD_ATOM=C6_O2
REMARK REAL_HEAD_ATOM=C2_C3
REMARK DUMMY_ATOM=C6_H12_H13_H14_O2
REMARK TORSION=H4_C2_C3_C4
REMARK TORSION=C2_C3_C4_C5
REMARK TORSION=C3_C4_C5_O1
REMARK TORSION=C4_C5_O1_H11
MODEL 0
HETATM    1  C1  UNL     1      -1.006  -1.801   1.266  1.00  0.00    -0.052 C 
HETATM    2  C2  UNL     1      -0.807  -0.576   0.369  1.00  0.00     0.034 C 
HETATM    3  C3  UNL     1       0.693  -0.343   0.122  1.00  0.00    -0.039 C 
HETATM    4  C4  UNL     1       0.929   0.807  -0.869  1.00  0.00    -0.043 C 
HETATM    5  C5  UNL     1       2.420   1.076  -1.092  1.00  0.00     0.017 C 
HETATM    6  O1  UNL     1       3.023   0.002  -1.764  1.00  0.00    -0.401 OA
HETATM    7  O2  UNL     1      -1.352   0.564   1.014  1.00  0.00    -0.391 OA
HETATM    8  C6  UNL     1      -2.620   0.878   0.483  1.00  0.00     0.004 C 
HETATM    9  H1  UNL     1      -2.089  -1.980   1.430  1.00  0.00     0.030 H 
HETATM   10  H2  UNL     1      -0.519  -1.644   2.253  1.00  0.00     0.030 H 
HETATM   11  H3  UNL     1      -0.573  -2.706   0.788  1.00  0.00     0.030 H 
HETATM   12  H4  UNL     1      -1.277  -0.798  -0.621  1.00  0.00     0.082 H 
HETATM   13  H5  UNL     1       1.142  -1.273  -0.290  1.00  0.00     0.036 H 
HETATM   14  H6  UNL     1       1.196  -0.111   1.087  1.00  0.00     0.036 H 
HETATM   15  H7  UNL     1       0.450   0.569  -1.844  1.00  0.00     0.036 H 
HETATM   16  H8  UNL     1       0.463   1.737  -0.475  1.00  0.00     0.036 H 
HETATM   17  H9  UNL     1       2.929   1.284  -0.122  1.00  0.00     0.073 H 
HETATM   18  H10 UNL     1       2.525   1.984  -1.722  1.00  0.00     0.073 H 
HETATM   19  H11 UNL     1       3.374  -0.613  -1.069  1.00  0.00     0.209 HD
HETATM   20  H12 UNL     1      -2.534   1.202  -0.577  1.00  0.00     0.066 H 
HETATM   21  H13 UNL     1      -3.047   1.723   1.062  1.00  0.00     0.066 H 
HETATM   22  H14 UNL     1      -3.321   0.018   0.572  1.00  0.00     0.066 H 
TER      23      UNL     1 
ENDMDL
