MODEL 0
REMARK FAKE_HEAD_ATOM=C21_O1
REMARK REAL_HEAD_ATOM=C20_C19
REMARK DUMMY_ATOM=C21_H42_H43_H44_O1
REMARK TORSION=H40_C20_C19_C18
REMARK TORSION=C20_C19_C18_C17
REMARK TORSION=C19_C18_C17_C16
REMARK TORSION=C18_C17_C16_C15
REMARK TORSION=C17_C16_C15_C14
REMARK TORSION=C16_C15_C14_C13
REMARK TORSION=C15_C14_C13_C12
REMARK TORSION=C14_C13_C12_C11
REMARK TORSION=C13_C12_C11_C10
REMARK TORSION=C12_C11_C10_C9
REMARK TORSION=C11_C10_C9_C8
REMARK TORSION=C10_C9_C8_C7
REMARK TORSION=C9_C8_C7_C6
REMARK TORSION=C8_C7_C6_C5
REMARK TORSION=C7_C6_C5_C4
REMARK TORSION=C6_C5_C4_C3
REMARK TORSION=C5_C4_C3_C2
REMARK TORSION=C4_C3_C2_C1
HETATM    1  C1  UNL     1      13.180  -0.367  -0.000  1.00  0.00    -0.077 C 
HETATM    2  C2  UNL     1      11.926   0.509   0.000  1.00  0.00    -0.069 C 
HETATM    3  C3  UNL     1      10.682  -0.383  -0.000  1.00  0.00    -0.065 C 
HETATM    4  C4  UNL     1       9.427   0.493   0.000  1.00  0.00    -0.065 C 
HETATM    5  C5  UNL     1       8.184  -0.398  -0.000  1.00  0.00    -0.065 C 
HETATM    6  C6  UNL     1       6.929   0.478   0.000  1.00  0.00    -0.065 C 
HETATM    7  C7  UNL     1       5.685  -0.413  -0.000  1.00  0.00    -0.065 C 
HETATM    8  C8  UNL     1       4.430   0.462   0.000  1.00  0.00    -0.065 C 
HETATM    9  C9  UNL     1       3.187  -0.429  -0.000  1.00  0.00    -0.065 C 
HETATM   10  C10 UNL     1       1.932   0.447   0.000  1.00  0.00    -0.065 C 
HETATM   11  C11 UNL     1       0.688  -0.444   0.000  1.00  0.00    -0.065 C 
HETATM   12  C12 UNL     1      -0.567   0.431   0.000  1.00  0.00    -0.065 C 
HETATM   13  C13 UNL     1      -1.810  -0.460   0.000  1.00  0.00    -0.065 C 
HETATM   14  C14 UNL     1      -3.065   0.416  -0.000  1.00  0.00    -0.065 C 
HETATM   15  C15 UNL     1      -4.309  -0.475   0.000  1.00  0.00    -0.065 C 
HETATM   16  C16 UNL     1      -5.563   0.400  -0.000  1.00  0.00    -0.065 C 
HETATM   17  C17 UNL     1      -6.807  -0.491   0.000  1.00  0.00    -0.065 C 
HETATM   18  C18 UNL     1      -8.062   0.385  -0.000  1.00  0.00    -0.063 C 
HETATM   19  C19 UNL     1      -9.306  -0.506   0.000  1.00  0.00    -0.045 C 
HETATM   20  C20 UNL     1     -10.560   0.369  -0.000  1.00  0.00     0.019 C 
HETATM   21  O1  UNL     1     -11.722  -0.463   0.000  1.00  0.00    -0.396 OA
HETATM   22  C21 UNL     1     -12.854   0.409  -0.000  1.00  0.00     0.004 C 
HETATM   23  H1  UNL     1      14.066   0.268   0.000  1.00  0.00     0.027 H 
HETATM   24  H2  UNL     1      13.184  -0.996   0.890  1.00  0.00     0.027 H 
HETATM   25  H3  UNL     1      13.184  -0.996  -0.890  1.00  0.00     0.027 H 
HETATM   26  H4  UNL     1      11.922   1.138   0.890  1.00  0.00     0.032 H 
HETATM   27  H5  UNL     1      11.922   1.138  -0.890  1.00  0.00     0.032 H 
HETATM   28  H6  UNL     1      10.686  -1.012  -0.890  1.00  0.00     0.033 H 
HETATM   29  H7  UNL     1      10.686  -1.012   0.890  1.00  0.00     0.033 H 
HETATM   30  H8  UNL     1       9.423   1.122   0.890  1.00  0.00     0.033 H 
HETATM   31  H9  UNL     1       9.423   1.122  -0.890  1.00  0.00     0.033 H 
HETATM   32  H10 UNL     1       8.187  -1.027  -0.890  1.00  0.00     0.033 H 
HETATM   33  H11 UNL     1       8.187  -1.027   0.890  1.00  0.00     0.033 H 
HETATM   34  H12 UNL     1       6.925   1.107   0.890  1.00  0.00     0.033 H 
HETATM   35  H13 UNL     1       6.925   1.107  -0.890  1.00  0.00     0.033 H 
HETATM   36  H14 UNL     1       5.689  -1.043  -0.890  1.00  0.00     0.033 H 
HETATM   37  H15 UNL     1       5.689  -1.043   0.890  1.00  0.00     0.033 H 
HETATM   38  H16 UNL     1       4.427   1.092   0.890  1.00  0.00     0.033 H 
HETATM   39  H17 UNL     1       4.427   1.092  -0.890  1.00  0.00     0.033 H 
HETATM   40  H18 UNL     1       3.191  -1.058  -0.890  1.00  0.00     0.033 H 
HETATM   41  H19 UNL     1       3.191  -1.058   0.890  1.00  0.00     0.033 H 
HETATM   42  H20 UNL     1       1.928   1.076   0.890  1.00  0.00     0.033 H 
HETATM   43  H21 UNL     1       1.928   1.076  -0.890  1.00  0.00     0.033 H 
HETATM   44  H22 UNL     1       0.692  -1.074  -0.890  1.00  0.00     0.033 H 
HETATM   45  H23 UNL     1       0.692  -1.074   0.890  1.00  0.00     0.033 H 
HETATM   46  H24 UNL     1      -0.570   1.061   0.890  1.00  0.00     0.033 H 
HETATM   47  H25 UNL     1      -0.570   1.061  -0.890  1.00  0.00     0.033 H 
HETATM   48  H26 UNL     1      -1.806  -1.089  -0.890  1.00  0.00     0.033 H 
HETATM   49  H27 UNL     1      -1.806  -1.089   0.890  1.00  0.00     0.033 H 
HETATM   50  H28 UNL     1      -3.069   1.045   0.890  1.00  0.00     0.033 H 
HETATM   51  H29 UNL     1      -3.069   1.045  -0.890  1.00  0.00     0.033 H 
HETATM   52  H30 UNL     1      -4.305  -1.105  -0.890  1.00  0.00     0.033 H 
HETATM   53  H31 UNL     1      -4.305  -1.105   0.890  1.00  0.00     0.033 H 
HETATM   54  H32 UNL     1      -5.567   1.030   0.890  1.00  0.00     0.033 H 
HETATM   55  H33 UNL     1      -5.567   1.030  -0.890  1.00  0.00     0.033 H 
HETATM   56  H34 UNL     1      -6.803  -1.120  -0.890  1.00  0.00     0.033 H 
HETATM   57  H35 UNL     1      -6.803  -1.120   0.890  1.00  0.00     0.033 H 
HETATM   58  H36 UNL     1      -8.066   1.014   0.890  1.00  0.00     0.033 H 
HETATM   59  H37 UNL     1      -8.066   1.014  -0.890  1.00  0.00     0.033 H 
HETATM   60  H38 UNL     1      -9.302  -1.136  -0.890  1.00  0.00     0.036 H 
HETATM   61  H39 UNL     1      -9.302  -1.136   0.890  1.00  0.00     0.036 H 
HETATM   62  H40 UNL     1     -10.564   0.999   0.890  1.00  0.00     0.074 H 
HETATM   63  H41 UNL     1     -10.564   0.999  -0.890  1.00  0.00     0.074 H 
HETATM   64  H42 UNL     1     -13.769  -0.184   0.000  1.00  0.00     0.066 H 
HETATM   65  H43 UNL     1     -12.829   1.037   0.890  1.00  0.00     0.066 H 
HETATM   66  H44 UNL     1     -12.829   1.037  -0.890  1.00  0.00     0.066 H 
TER      67      UNL     1 
ENDMDL
