REMARK FAKE_HEAD_ATOM=C13_O2
REMARK REAL_HEAD_ATOM=C12_C11
REMARK DUMMY_ATOM=C13_H26_H27_H28_O2
REMARK TORSION=H24_C12_C11_C10
REMARK TORSION=C12_C11_C10_C9
REMARK TORSION=C11_C10_C9_C8
REMARK TORSION=C10_C9_C8_C7
REMARK TORSION=C9_C8_C7_C6
REMARK TORSION=C8_C7_C6_C5
REMARK TORSION=C7_C6_C5_C4
REMARK TORSION=C6_C5_C4_C3
REMARK TORSION=C5_C4_C3_C2
REMARK TORSION=C4_C3_C2_C1
REMARK TORSION=C3_C2_C1_O1
REMARK TORSION=C2_C1_O1_H1
MODEL 0
HETATM    1  O1  UNL     1      -5.125   3.019   0.408  1.00  0.00    -0.401 OA
HETATM    2  C1  UNL     1      -5.509   2.038  -0.518  1.00  0.00     0.017 C 
HETATM    3  C2  UNL     1      -4.978   0.660  -0.108  1.00  0.00    -0.045 C 
HETATM    4  C3  UNL     1      -3.444   0.619  -0.105  1.00  0.00    -0.063 C 
HETATM    5  C4  UNL     1      -2.933  -0.775   0.278  1.00  0.00    -0.065 C 
HETATM    6  C5  UNL     1      -1.400  -0.817   0.284  1.00  0.00    -0.065 C 
HETATM    7  C6  UNL     1      -0.889  -2.216   0.662  1.00  0.00    -0.065 C 
HETATM    8  C7  UNL     1       0.642  -2.269   0.784  1.00  0.00    -0.065 C 
HETATM    9  C8  UNL     1       1.343  -2.284  -0.585  1.00  0.00    -0.065 C 
HETATM   10  C9  UNL     1       2.881  -2.295  -0.450  1.00  0.00    -0.065 C 
HETATM   11  C10 UNL     1       3.530  -0.924  -0.701  1.00  0.00    -0.063 C 
HETATM   12  C11 UNL     1       3.156   0.119   0.363  1.00  0.00    -0.045 C 
HETATM   13  C12 UNL     1       3.957   1.412   0.196  1.00  0.00     0.019 C 
HETATM   14  O2  UNL     1       3.632   2.015  -1.039  1.00  0.00    -0.396 OA
HETATM   15  C13 UNL     1       4.386   3.196  -1.194  1.00  0.00     0.004 C 
HETATM   16  H1  UNL     1      -5.696   2.891   1.210  1.00  0.00     0.209 HD
HETATM   17  H2  UNL     1      -6.619   2.001  -0.599  1.00  0.00     0.073 H 
HETATM   18  H3  UNL     1      -5.110   2.310  -1.518  1.00  0.00     0.073 H 
HETATM   19  H4  UNL     1      -5.364   0.404   0.903  1.00  0.00     0.036 H 
HETATM   20  H5  UNL     1      -5.366  -0.095  -0.826  1.00  0.00     0.036 H 
HETATM   21  H6  UNL     1      -3.055   1.364   0.622  1.00  0.00     0.033 H 
HETATM   22  H7  UNL     1      -3.068   0.882  -1.118  1.00  0.00     0.033 H 
HETATM   23  H8  UNL     1      -3.318  -1.522  -0.450  1.00  0.00     0.033 H 
HETATM   24  H9  UNL     1      -3.312  -1.039   1.290  1.00  0.00     0.033 H 
HETATM   25  H10 UNL     1      -1.030  -0.541  -0.726  1.00  0.00     0.033 H 
HETATM   26  H11 UNL     1      -1.016  -0.073   1.016  1.00  0.00     0.033 H 
HETATM   27  H12 UNL     1      -1.237  -2.963  -0.085  1.00  0.00     0.033 H 
HETATM   28  H13 UNL     1      -1.322  -2.498   1.647  1.00  0.00     0.033 H 
HETATM   29  H14 UNL     1       0.997  -1.419   1.403  1.00  0.00     0.033 H 
HETATM   30  H15 UNL     1       0.912  -3.203   1.325  1.00  0.00     0.033 H 
HETATM   31  H16 UNL     1       1.020  -1.421  -1.204  1.00  0.00     0.033 H 
HETATM   32  H17 UNL     1       1.028  -3.204  -1.124  1.00  0.00     0.033 H 
HETATM   33  H18 UNL     1       3.290  -2.998  -1.209  1.00  0.00     0.033 H 
HETATM   34  H19 UNL     1       3.197  -2.687   0.542  1.00  0.00     0.033 H 
HETATM   35  H20 UNL     1       4.633  -1.063  -0.699  1.00  0.00     0.033 H 
HETATM   36  H21 UNL     1       3.241  -0.555  -1.710  1.00  0.00     0.033 H 
HETATM   37  H22 UNL     1       3.358  -0.295   1.375  1.00  0.00     0.036 H 
HETATM   38  H23 UNL     1       2.074   0.363   0.290  1.00  0.00     0.036 H 
HETATM   39  H24 UNL     1       3.692   2.089   1.040  1.00  0.00     0.074 H 
HETATM   40  H25 UNL     1       5.044   1.172   0.254  1.00  0.00     0.074 H 
HETATM   41  H26 UNL     1       5.477   2.977  -1.221  1.00  0.00     0.066 H 
HETATM   42  H27 UNL     1       4.115   3.664  -2.162  1.00  0.00     0.066 H 
HETATM   43  H28 UNL     1       4.157   3.930  -0.390  1.00  0.00     0.066 H 
TER      44      UNL     1 
ENDMDL
