REMARK FAKE_HEAD_ATOM=C6_O1
REMARK REAL_HEAD_ATOM=C5_C4
REMARK DUMMY_ATOM=C6_H11_H12_H13_O1
REMARK TORSION=H9_C5_C4_C3
REMARK TORSION=C5_C4_C3_C2
REMARK TORSION=C4_C3_C2_C1
MODEL 0
HETATM    1  C1  UNL     1      -1.355   1.672   0.453  1.00  0.00    -0.076 C 
HETATM    2  C2  UNL     1      -1.701   0.314  -0.160  1.00  0.00    -0.065 C 
HETATM    3  C3  UNL     1      -0.768  -0.821   0.351  1.00  0.00    -0.056 C 
HETATM    4  C4  UNL     1       0.316  -1.210  -0.685  1.00  0.00    -0.042 C 
HETATM    5  C5  UNL     1       1.318  -0.092  -0.989  1.00  0.00     0.019 C 
HETATM    6  O1  UNL     1       1.963   0.312   0.202  1.00  0.00    -0.396 OA
HETATM    7  C6  UNL     1       2.854   1.366  -0.083  1.00  0.00     0.004 C 
HETATM    8  C7  UNL     1      -1.594  -2.066   0.708  1.00  0.00    -0.073 C 
HETATM    9  H1  UNL     1      -0.311   1.963   0.222  1.00  0.00     0.027 H 
HETATM   10  H2  UNL     1      -1.486   1.637   1.555  1.00  0.00     0.027 H 
HETATM   11  H3  UNL     1      -2.035   2.448   0.042  1.00  0.00     0.027 H 
HETATM   12  H4  UNL     1      -2.761   0.102   0.099  1.00  0.00     0.033 H 
HETATM   13  H5  UNL     1      -1.662   0.391  -1.269  1.00  0.00     0.033 H 
HETATM   14  H6  UNL     1      -0.263  -0.503   1.290  1.00  0.00     0.039 H 
HETATM   15  H7  UNL     1       0.891  -2.083  -0.303  1.00  0.00     0.036 H 
HETATM   16  H8  UNL     1      -0.169  -1.525  -1.635  1.00  0.00     0.036 H 
HETATM   17  H9  UNL     1       2.064  -0.493  -1.712  1.00  0.00     0.074 H 
HETATM   18  H10 UNL     1       0.787   0.757  -1.474  1.00  0.00     0.074 H 
HETATM   19  H11 UNL     1       3.640   1.047  -0.804  1.00  0.00     0.066 H 
HETATM   20  H12 UNL     1       3.363   1.662   0.857  1.00  0.00     0.066 H 
HETATM   21  H13 UNL     1       2.312   2.258  -0.467  1.00  0.00     0.066 H 
HETATM   22  H14 UNL     1      -2.135  -2.446  -0.186  1.00  0.00     0.028 H 
HETATM   23  H15 UNL     1      -2.335  -1.821   1.499  1.00  0.00     0.028 H 
HETATM   24  H16 UNL     1      -0.935  -2.870   1.098  1.00  0.00     0.028 H 
TER      25      UNL     1 
ENDMDL
