REMARK FAKE_HEAD_ATOM=C4_O1
REMARK REAL_HEAD_ATOM=C3_C2
REMARK DUMMY_ATOM=C4_H10_H8_H9_O1
REMARK TORSION=H6_C3_C2_C1
REMARK TORSION=C3_C2_C1_S1
REMARK TORSION=C2_C1_S1_H1
MODEL 0
HETATM    1  S1  UNL     1      -2.957  -0.259   0.876  1.00  0.00    -0.182 SA
HETATM    2  C1  UNL     1      -1.787  -0.766  -0.426  1.00  0.00    -0.024 C 
HETATM    3  C2  UNL     1      -0.592   0.189  -0.517  1.00  0.00    -0.037 C 
HETATM    4  C3  UNL     1       0.340   0.074   0.696  1.00  0.00     0.020 C 
HETATM    5  O1  UNL     1       1.414   0.988   0.572  1.00  0.00    -0.396 OA
HETATM    6  C4  UNL     1       2.557   0.340   0.060  1.00  0.00     0.004 C 
HETATM    7  H1  UNL     1      -3.327   0.918   0.198  1.00  0.00     0.101 HD
HETATM    8  H2  UNL     1      -1.437  -1.800  -0.221  1.00  0.00     0.048 H 
HETATM    9  H3  UNL     1      -2.325  -0.772  -1.397  1.00  0.00     0.048 H 
HETATM   10  H4  UNL     1      -0.953   1.236  -0.615  1.00  0.00     0.037 H 
HETATM   11  H5  UNL     1      -0.019  -0.057  -1.437  1.00  0.00     0.037 H 
HETATM   12  H6  UNL     1       0.668  -0.984   0.835  1.00  0.00     0.074 H 
HETATM   13  H7  UNL     1      -0.226   0.348   1.611  1.00  0.00     0.074 H 
HETATM   14  H8  UNL     1       2.346  -0.153  -0.915  1.00  0.00     0.066 H 
HETATM   15  H9  UNL     1       3.348   1.099  -0.112  1.00  0.00     0.066 H 
HETATM   16  H10 UNL     1       2.951  -0.400   0.791  1.00  0.00     0.066 H 
TER      17      UNL     1 
ENDMDL
