REMARK FAKE_HEAD_ATOM=C4_O3
REMARK REAL_HEAD_ATOM=C3_C1
REMARK DUMMY_ATOM=C4_H6_H7_H8_O3
REMARK TORSION=H4_C3_C1_C2
REMARK TORSION=C3_C1_O1_H1
REMARK TORSION=C3_C1_C2_O2
MODEL 0
HETATM    1  O1  UNL     1       1.384   1.519   0.799  1.00  0.00    -0.387 OA
HETATM    2  C1  UNL     1       1.316   0.354   0.020  1.00  0.00     0.106 C 
HETATM    3  C2  UNL     1       1.865  -0.801   0.809  1.00  0.00     0.117 C 
HETATM    4  O2  UNL     1       2.011  -1.894   0.286  1.00  0.00    -0.304 OA
HETATM    5  C3  UNL     1      -0.135   0.087  -0.402  1.00  0.00     0.049 C 
HETATM    6  O3  UNL     1      -0.950  -0.051   0.744  1.00  0.00    -0.393 OA
HETATM    7  C4  UNL     1      -2.279  -0.302   0.345  1.00  0.00     0.004 C 
HETATM    8  H1  UNL     1       1.287   2.287   0.177  1.00  0.00     0.210 HD
HETATM    9  H2  UNL     1       1.945   0.476  -0.893  1.00  0.00     0.097 H 
HETATM   10  H3  UNL     1       2.149  -0.667   1.849  1.00  0.00     0.147 H 
HETATM   11  H4  UNL     1      -0.164  -0.837  -1.025  1.00  0.00     0.078 H 
HETATM   12  H5  UNL     1      -0.479   0.945  -1.025  1.00  0.00     0.078 H 
HETATM   13  H6  UNL     1      -2.687   0.542  -0.253  1.00  0.00     0.066 H 
HETATM   14  H7  UNL     1      -2.907  -0.403   1.254  1.00  0.00     0.066 H 
HETATM   15  H8  UNL     1      -2.355  -1.256  -0.223  1.00  0.00     0.066 H 
TER      16      UNL     1 
ENDMDL
