REMARK FAKE_HEAD_ATOM=C4_O2
REMARK REAL_HEAD_ATOM=C3_C2
REMARK DUMMY_ATOM=C4_H7_H8_H9_O2
REMARK TORSION=H6_C3_C2_O1
REMARK TORSION=C3_C2_O1_C1
MODEL 0
HETATM    1  C1  UNL     1       2.882  -0.407  -0.293  1.00  0.00     0.004 C 
HETATM    2  O1  UNL     1       1.684   0.319  -0.452  1.00  0.00    -0.393 OA
HETATM    3  C2  UNL     1       0.622  -0.389   0.153  1.00  0.00     0.043 C 
HETATM    4  C3  UNL     1      -0.683   0.409   0.009  1.00  0.00     0.055 C 
HETATM    5  O2  UNL     1      -1.755  -0.341   0.557  1.00  0.00    -0.389 OA
HETATM    6  C4  UNL     1      -2.485  -0.987  -0.463  1.00  0.00     0.005 C 
HETATM    7  C5  UNL     1      -0.590   1.736   0.766  1.00  0.00    -0.050 C 
HETATM    8  H1  UNL     1       3.144  -0.519   0.783  1.00  0.00     0.066 H 
HETATM    9  H2  UNL     1       2.818  -1.403  -0.784  1.00  0.00     0.066 H 
HETATM   10  H3  UNL     1       3.703   0.156  -0.781  1.00  0.00     0.066 H 
HETATM   11  H4  UNL     1       0.486  -1.375  -0.347  1.00  0.00     0.078 H 
HETATM   12  H5  UNL     1       0.822  -0.562   1.236  1.00  0.00     0.078 H 
HETATM   13  H6  UNL     1      -0.829   0.663  -1.070  1.00  0.00     0.086 H 
HETATM   14  H7  UNL     1      -1.831  -1.641  -1.081  1.00  0.00     0.066 H 
HETATM   15  H8  UNL     1      -3.008  -0.243  -1.104  1.00  0.00     0.066 H 
HETATM   16  H9  UNL     1      -3.258  -1.630   0.007  1.00  0.00     0.066 H 
HETATM   17  H10 UNL     1      -0.402   1.557   1.847  1.00  0.00     0.031 H 
HETATM   18  H11 UNL     1      -1.546   2.293   0.661  1.00  0.00     0.031 H 
HETATM   19  H12 UNL     1       0.226   2.366   0.354  1.00  0.00     0.031 H 
TER      20      UNL     1 
ENDMDL
