REMARK FAKE_HEAD_ATOM=C4_O1
REMARK REAL_HEAD_ATOM=C3_C2
REMARK DUMMY_ATOM=C4_H7_H8_H9_O1
REMARK TORSION=C5_C3_C2_C1
MODEL 0
HETATM    1  C1  UNL     1      -2.317  -0.227   0.030  1.00  0.00    -0.074 C 
HETATM    2  C2  UNL     1      -1.018  -0.386  -0.761  1.00  0.00    -0.045 C 
HETATM    3  C3  UNL     1       0.233   0.021   0.040  1.00  0.00     0.034 C 
HETATM    4  O1  UNL     1       1.376  -0.349  -0.715  1.00  0.00    -0.391 OA
HETATM    5  C4  UNL     1       2.376  -0.891   0.119  1.00  0.00     0.004 C 
HETATM    6  C5  UNL     1       0.271   1.535   0.288  1.00  0.00    -0.052 C 
HETATM    7  H1  UNL     1      -3.159  -0.652  -0.556  1.00  0.00     0.027 H 
HETATM    8  H2  UNL     1      -2.254  -0.769   0.998  1.00  0.00     0.027 H 
HETATM    9  H3  UNL     1      -2.536   0.844   0.218  1.00  0.00     0.027 H 
HETATM   10  H4  UNL     1      -0.920  -1.456  -1.048  1.00  0.00     0.036 H 
HETATM   11  H5  UNL     1      -1.082   0.207  -1.700  1.00  0.00     0.036 H 
HETATM   12  H6  UNL     1       0.180  -0.496   1.030  1.00  0.00     0.082 H 
HETATM   13  H7  UNL     1       2.043  -1.861   0.552  1.00  0.00     0.066 H 
HETATM   14  H8  UNL     1       2.660  -0.182   0.928  1.00  0.00     0.066 H 
HETATM   15  H9  UNL     1       3.280  -1.087  -0.492  1.00  0.00     0.066 H 
HETATM   16  H10 UNL     1      -0.562   1.847   0.951  1.00  0.00     0.030 H 
HETATM   17  H11 UNL     1       0.205   2.090  -0.672  1.00  0.00     0.030 H 
HETATM   18  H12 UNL     1       1.222   1.813   0.790  1.00  0.00     0.030 H 
TER      19      UNL     1 
ENDMDL
