REMARK FAKE_HEAD_ATOM=C4_O3
REMARK REAL_HEAD_ATOM=C2_C1
REMARK DUMMY_ATOM=C4_H6_H7_H8_O3
REMARK TORSION=H4_C2_C1_O1
REMARK TORSION=C2_C1_O1_H1
REMARK TORSION=H4_C2_C3_O2
MODEL 0
HETATM    1  O1  UNL     1       1.217  -1.975  -0.156  1.00  0.00    -0.398 OA
HETATM    2  C1  UNL     1       1.295  -0.685   0.384  1.00  0.00     0.047 C 
HETATM    3  C2  UNL     1       0.229   0.206  -0.257  1.00  0.00     0.108 C 
HETATM    4  C3  UNL     1       0.326   1.601   0.304  1.00  0.00     0.117 C 
HETATM    5  O2  UNL     1       1.308   2.291   0.079  1.00  0.00    -0.304 OA
HETATM    6  O3  UNL     1      -1.048  -0.338   0.031  1.00  0.00    -0.382 OA
HETATM    7  C4  UNL     1      -1.963  -0.019  -0.996  1.00  0.00     0.005 C 
HETATM    8  H1  UNL     1       1.921  -2.507   0.298  1.00  0.00     0.209 HD
HETATM    9  H2  UNL     1       2.307  -0.264   0.186  1.00  0.00     0.078 H 
HETATM   10  H3  UNL     1       1.135  -0.731   1.486  1.00  0.00     0.078 H 
HETATM   11  H4  UNL     1       0.442   0.243  -1.353  1.00  0.00     0.097 H 
HETATM   12  H5  UNL     1      -0.484   2.008   0.900  1.00  0.00     0.147 H 
HETATM   13  H6  UNL     1      -2.971  -0.371  -0.694  1.00  0.00     0.066 H 
HETATM   14  H7  UNL     1      -2.025   1.080  -1.162  1.00  0.00     0.066 H 
HETATM   15  H8  UNL     1      -1.692  -0.539  -1.941  1.00  0.00     0.066 H 
TER      16      UNL     1 
ENDMDL
