REMARK FAKE_HEAD_ATOM=C31_O1
REMARK REAL_HEAD_ATOM=C30_C29
REMARK DUMMY_ATOM=C31_H62_H63_H64_O1
REMARK TORSION=H60_C30_C29_C28
REMARK TORSION=C30_C29_C28_C27
REMARK TORSION=C29_C28_C27_C26
REMARK TORSION=C28_C27_C26_C25
REMARK TORSION=C27_C26_C25_C24
REMARK TORSION=C26_C25_C24_C23
REMARK TORSION=C25_C24_C23_C22
REMARK TORSION=C24_C23_C22_C21
REMARK TORSION=C23_C22_C21_C20
REMARK TORSION=C22_C21_C20_C19
REMARK TORSION=C21_C20_C19_C18
REMARK TORSION=C20_C19_C18_C17
REMARK TORSION=C19_C18_C17_C16
REMARK TORSION=C18_C17_C16_C15
REMARK TORSION=C17_C16_C15_C14
REMARK TORSION=C16_C15_C14_C13
REMARK TORSION=C15_C14_C13_C12
REMARK TORSION=C14_C13_C12_C11
REMARK TORSION=C13_C12_C11_C10
REMARK TORSION=C12_C11_C10_C9
REMARK TORSION=C11_C10_C9_C8
REMARK TORSION=C10_C9_C8_C7
REMARK TORSION=C9_C8_C7_C6
REMARK TORSION=C8_C7_C6_C5
REMARK TORSION=C7_C6_C5_C4
REMARK TORSION=C6_C5_C4_C3
REMARK TORSION=C5_C4_C3_C2
REMARK TORSION=C4_C3_C2_C1
MODEL 0
HETATM    1  C1  UNL     1     -12.329   1.068  -2.793  1.00  0.00    -0.077 C 
HETATM    2  C2  UNL     1     -12.677   0.059  -1.699  1.00  0.00    -0.069 C 
HETATM    3  C3  UNL     1     -12.154  -1.355  -2.003  1.00  0.00    -0.065 C 
HETATM    4  C4  UNL     1     -10.620  -1.493  -1.969  1.00  0.00    -0.065 C 
HETATM    5  C5  UNL     1     -10.011  -1.287  -0.565  1.00  0.00    -0.065 C 
HETATM    6  C6  UNL     1      -9.307   0.074  -0.431  1.00  0.00    -0.065 C 
HETATM    7  C7  UNL     1      -8.854   0.372   1.009  1.00  0.00    -0.065 C 
HETATM    8  C8  UNL     1      -7.841  -0.631   1.598  1.00  0.00    -0.065 C 
HETATM    9  C9  UNL     1      -6.563  -0.842   0.767  1.00  0.00    -0.065 C 
HETATM   10  C10 UNL     1      -5.719   0.436   0.632  1.00  0.00    -0.065 C 
HETATM   11  C11 UNL     1      -4.460   0.238  -0.232  1.00  0.00    -0.065 C 
HETATM   12  C12 UNL     1      -3.449  -0.795   0.300  1.00  0.00    -0.065 C 
HETATM   13  C13 UNL     1      -2.881  -0.425   1.680  1.00  0.00    -0.065 C 
HETATM   14  C14 UNL     1      -1.828  -1.429   2.183  1.00  0.00    -0.065 C 
HETATM   15  C15 UNL     1      -0.555  -1.543   1.318  1.00  0.00    -0.065 C 
HETATM   16  C16 UNL     1       0.163  -0.214   1.021  1.00  0.00    -0.065 C 
HETATM   17  C17 UNL     1       0.684   0.481   2.290  1.00  0.00    -0.065 C 
HETATM   18  C18 UNL     1       1.356   1.836   2.001  1.00  0.00    -0.065 C 
HETATM   19  C19 UNL     1       2.602   1.775   1.099  1.00  0.00    -0.065 C 
HETATM   20  C20 UNL     1       3.738   0.930   1.700  1.00  0.00    -0.065 C 
HETATM   21  C21 UNL     1       5.010   0.953   0.836  1.00  0.00    -0.065 C 
HETATM   22  C22 UNL     1       5.758   2.296   0.919  1.00  0.00    -0.065 C 
HETATM   23  C23 UNL     1       7.155   2.230   0.280  1.00  0.00    -0.065 C 
HETATM   24  C24 UNL     1       7.101   2.186  -1.257  1.00  0.00    -0.065 C 
HETATM   25  C25 UNL     1       8.508   2.084  -1.883  1.00  0.00    -0.065 C 
HETATM   26  C26 UNL     1       8.852   0.677  -2.403  1.00  0.00    -0.065 C 
HETATM   27  C27 UNL     1       8.967  -0.363  -1.277  1.00  0.00    -0.065 C 
HETATM   28  C28 UNL     1       9.340  -1.765  -1.791  1.00  0.00    -0.063 C 
HETATM   29  C29 UNL     1      10.725  -1.874  -2.459  1.00  0.00    -0.045 C 
HETATM   30  C30 UNL     1      11.887  -1.436  -1.561  1.00  0.00     0.019 C 
HETATM   31  O1  UNL     1      11.859  -2.165  -0.351  1.00  0.00    -0.396 OA
HETATM   32  C31 UNL     1      12.892  -1.708   0.493  1.00  0.00     0.004 C 
HETATM   33  H1  UNL     1     -12.691   0.710  -3.780  1.00  0.00     0.027 H 
HETATM   34  H2  UNL     1     -12.820   2.038  -2.568  1.00  0.00     0.027 H 
HETATM   35  H3  UNL     1     -11.234   1.239  -2.843  1.00  0.00     0.027 H 
HETATM   36  H4  UNL     1     -12.300   0.415  -0.718  1.00  0.00     0.032 H 
HETATM   37  H5  UNL     1     -13.785   0.007  -1.620  1.00  0.00     0.032 H 
HETATM   38  H6  UNL     1     -12.595  -2.063  -1.268  1.00  0.00     0.033 H 
HETATM   39  H7  UNL     1     -12.519  -1.667  -3.006  1.00  0.00     0.033 H 
HETATM   40  H8  UNL     1     -10.382  -2.529  -2.297  1.00  0.00     0.033 H 
HETATM   41  H9  UNL     1     -10.150  -0.824  -2.720  1.00  0.00     0.033 H 
HETATM   42  H10 UNL     1      -9.261  -2.089  -0.393  1.00  0.00     0.033 H 
HETATM   43  H11 UNL     1     -10.789  -1.394   0.223  1.00  0.00     0.033 H 
HETATM   44  H12 UNL     1     -10.004   0.882  -0.733  1.00  0.00     0.033 H 
HETATM   45  H13 UNL     1      -8.442   0.125  -1.125  1.00  0.00     0.033 H 
HETATM   46  H14 UNL     1      -9.750   0.389   1.668  1.00  0.00     0.033 H 
HETATM   47  H15 UNL     1      -8.425   1.396   1.046  1.00  0.00     0.033 H 
HETATM   48  H16 UNL     1      -7.553  -0.281   2.614  1.00  0.00     0.033 H 
HETATM   49  H17 UNL     1      -8.341  -1.614   1.738  1.00  0.00     0.033 H 
HETATM   50  H18 UNL     1      -5.964  -1.617   1.291  1.00  0.00     0.033 H 
HETATM   51  H19 UNL     1      -6.814  -1.246  -0.236  1.00  0.00     0.033 H 
HETATM   52  H20 UNL     1      -6.326   1.222   0.136  1.00  0.00     0.033 H 
HETATM   53  H21 UNL     1      -5.445   0.823   1.636  1.00  0.00     0.033 H 
HETATM   54  H22 UNL     1      -3.946   1.218  -0.335  1.00  0.00     0.033 H 
HETATM   55  H23 UNL     1      -4.773  -0.070  -1.253  1.00  0.00     0.033 H 
HETATM   56  H24 UNL     1      -2.619  -0.840  -0.436  1.00  0.00     0.033 H 
HETATM   57  H25 UNL     1      -3.907  -1.806   0.333  1.00  0.00     0.033 H 
HETATM   58  H26 UNL     1      -3.706  -0.425   2.423  1.00  0.00     0.033 H 
HETATM   59  H27 UNL     1      -2.459   0.602   1.662  1.00  0.00     0.033 H 
HETATM   60  H28 UNL     1      -1.542  -1.155   3.221  1.00  0.00     0.033 H 
HETATM   61  H29 UNL     1      -2.297  -2.435   2.247  1.00  0.00     0.033 H 
HETATM   62  H30 UNL     1       0.156  -2.225   1.834  1.00  0.00     0.033 H 
HETATM   63  H31 UNL     1      -0.810  -2.033   0.355  1.00  0.00     0.033 H 
HETATM   64  H32 UNL     1       1.023  -0.454   0.361  1.00  0.00     0.033 H 
HETATM   65  H33 UNL     1      -0.503   0.468   0.453  1.00  0.00     0.033 H 
HETATM   66  H34 UNL     1      -0.169   0.684   2.971  1.00  0.00     0.033 H 
HETATM   67  H35 UNL     1       1.381  -0.190   2.835  1.00  0.00     0.033 H 
HETATM   68  H36 UNL     1       0.609   2.510   1.526  1.00  0.00     0.033 H 
HETATM   69  H37 UNL     1       1.640   2.302   2.970  1.00  0.00     0.033 H 
HETATM   70  H38 UNL     1       2.333   1.394   0.092  1.00  0.00     0.033 H 
HETATM   71  H39 UNL     1       2.955   2.819   0.963  1.00  0.00     0.033 H 
HETATM   72  H40 UNL     1       3.972   1.278   2.729  1.00  0.00     0.033 H 
HETATM   73  H41 UNL     1       3.405  -0.127   1.766  1.00  0.00     0.033 H 
HETATM   74  H42 UNL     1       5.682   0.144   1.198  1.00  0.00     0.033 H 
HETATM   75  H43 UNL     1       4.742   0.722  -0.216  1.00  0.00     0.033 H 
HETATM   76  H44 UNL     1       5.169   3.100   0.429  1.00  0.00     0.033 H 
HETATM   77  H45 UNL     1       5.885   2.574   1.988  1.00  0.00     0.033 H 
HETATM   78  H46 UNL     1       7.709   1.356   0.682  1.00  0.00     0.033 H 
HETATM   79  H47 UNL     1       7.716   3.141   0.585  1.00  0.00     0.033 H 
HETATM   80  H48 UNL     1       6.621   3.124  -1.613  1.00  0.00     0.033 H 
HETATM   81  H49 UNL     1       6.464   1.346  -1.605  1.00  0.00     0.033 H 
HETATM   82  H50 UNL     1       8.552   2.777  -2.752  1.00  0.00     0.033 H 
HETATM   83  H51 UNL     1       9.294   2.424  -1.172  1.00  0.00     0.033 H 
HETATM   84  H52 UNL     1       9.822   0.753  -2.936  1.00  0.00     0.033 H 
HETATM   85  H53 UNL     1       8.085   0.353  -3.140  1.00  0.00     0.033 H 
HETATM   86  H54 UNL     1       9.696  -0.024  -0.511  1.00  0.00     0.033 H 
HETATM   87  H55 UNL     1       7.981  -0.457  -0.774  1.00  0.00     0.033 H 
HETATM   88  H56 UNL     1       9.298  -2.475  -0.936  1.00  0.00     0.033 H 
HETATM   89  H57 UNL     1       8.570  -2.098  -2.521  1.00  0.00     0.033 H 
HETATM   90  H58 UNL     1      10.744  -1.285  -3.400  1.00  0.00     0.036 H 
HETATM   91  H59 UNL     1      10.887  -2.936  -2.747  1.00  0.00     0.036 H 
HETATM   92  H60 UNL     1      12.835  -1.638  -2.109  1.00  0.00     0.074 H 
HETATM   93  H61 UNL     1      11.816  -0.340  -1.380  1.00  0.00     0.074 H 
HETATM   94  H62 UNL     1      12.739  -0.643   0.774  1.00  0.00     0.066 H 
HETATM   95  H63 UNL     1      12.876  -2.307   1.427  1.00  0.00     0.066 H 
HETATM   96  H64 UNL     1      13.891  -1.847   0.022  1.00  0.00     0.066 H 
TER      97      UNL     1 
ENDMDL
