REMARK FAKE_HEAD_ATOM=C5_O2
REMARK REAL_HEAD_ATOM=C2_C3
REMARK DUMMY_ATOM=C5_H10_H11_H12_O2
REMARK TORSION=H4_C2_C3_C4
REMARK TORSION=C2_C3_O1_H6
MODEL 0
HETATM    1  C1  UNL     1       0.671   1.832   0.165  1.00  0.00    -0.050 C 
HETATM    2  C2  UNL     1       0.199   0.409  -0.159  1.00  0.00     0.059 C 
HETATM    3  C3  UNL     1      -0.963  -0.003   0.770  1.00  0.00     0.057 C 
HETATM    4  O1  UNL     1      -2.036   0.889   0.608  1.00  0.00    -0.393 OA
HETATM    5  C4  UNL     1      -1.440  -1.426   0.455  1.00  0.00    -0.050 C 
HETATM    6  O2  UNL     1       1.284  -0.485   0.035  1.00  0.00    -0.389 OA
HETATM    7  C5  UNL     1       1.870  -0.835  -1.200  1.00  0.00     0.005 C 
HETATM    8  H1  UNL     1       1.013   1.897   1.220  1.00  0.00     0.031 H 
HETATM    9  H2  UNL     1       1.517   2.110  -0.498  1.00  0.00     0.031 H 
HETATM   10  H3  UNL     1      -0.148   2.564   0.002  1.00  0.00     0.031 H 
HETATM   11  H4  UNL     1      -0.196   0.409  -1.206  1.00  0.00     0.086 H 
HETATM   12  H5  UNL     1      -0.602   0.024   1.826  1.00  0.00     0.086 H 
HETATM   13  H6  UNL     1      -2.611   0.797   1.413  1.00  0.00     0.210 HD
HETATM   14  H7  UNL     1      -2.286  -1.696   1.121  1.00  0.00     0.031 H 
HETATM   15  H8  UNL     1      -1.781  -1.496  -0.600  1.00  0.00     0.031 H 
HETATM   16  H9  UNL     1      -0.622  -2.158   0.623  1.00  0.00     0.031 H 
HETATM   17  H10 UNL     1       2.213   0.066  -1.755  1.00  0.00     0.066 H 
HETATM   18  H11 UNL     1       2.758  -1.470  -1.004  1.00  0.00     0.066 H 
HETATM   19  H12 UNL     1       1.160  -1.427  -1.818  1.00  0.00     0.066 H 
TER      20      UNL     1 
ENDMDL
