REMARK FAKE_HEAD_ATOM=C4_O2
REMARK REAL_HEAD_ATOM=C3_C1
REMARK DUMMY_ATOM=C4_H7_H8_H9_O2
REMARK TORSION=H5_C3_C1_C2
REMARK TORSION=C3_C1_C2_CL1
REMARK TORSION=C3_C1_O1_H1
MODEL 0
HETATM    1  O1  UNL     1      -1.797   1.550   0.074  1.00  0.00    -0.392 OA
HETATM    2  C1  UNL     1      -1.037   0.531  -0.527  1.00  0.00     0.068 C 
HETATM    3  C2  UNL     1      -1.735  -0.830  -0.372  1.00  0.00     0.028 C 
HETATM    4 CL1  UNL     1      -3.351  -0.796  -1.125  1.00  0.00    -0.128 Cl
HETATM    5  C3  UNL     1       0.383   0.510   0.058  1.00  0.00     0.044 C 
HETATM    6  O2  UNL     1       1.189  -0.383  -0.684  1.00  0.00    -0.393 OA
HETATM    7  C4  UNL     1       2.485  -0.412  -0.130  1.00  0.00     0.004 C 
HETATM    8  H1  UNL     1      -1.864   1.343   1.044  1.00  0.00     0.210 HD
HETATM    9  H2  UNL     1      -0.959   0.762  -1.613  1.00  0.00     0.087 H 
HETATM   10  H3  UNL     1      -1.140  -1.624  -0.870  1.00  0.00     0.060 H 
HETATM   11  H4  UNL     1      -1.845  -1.090   0.702  1.00  0.00     0.060 H 
HETATM   12  H5  UNL     1       0.797   1.543  -0.003  1.00  0.00     0.078 H 
HETATM   13  H6  UNL     1       0.330   0.204   1.128  1.00  0.00     0.078 H 
HETATM   14  H7  UNL     1       2.468  -0.790   0.916  1.00  0.00     0.066 H 
HETATM   15  H8  UNL     1       3.109  -1.109  -0.728  1.00  0.00     0.066 H 
HETATM   16  H9  UNL     1       2.966   0.590  -0.174  1.00  0.00     0.066 H 
TER      17      UNL     1 
ENDMDL
