REMARK FAKE_HEAD_ATOM=C5_O1
REMARK REAL_HEAD_ATOM=C2_C3
REMARK DUMMY_ATOM=C5_H10_H11_H12_O1
REMARK TORSION=H4_C2_C3_S1
REMARK TORSION=C2_C3_S1_H6
MODEL 0
HETATM    1  C1  UNL     1       0.094  -0.922   1.605  1.00  0.00    -0.051 C 
HETATM    2  C2  UNL     1       0.435  -0.290   0.249  1.00  0.00     0.046 C 
HETATM    3  C3  UNL     1      -0.769   0.441  -0.399  1.00  0.00     0.009 C 
HETATM    4  S1  UNL     1      -1.320   1.865   0.609  1.00  0.00    -0.175 SA
HETATM    5  C4  UNL     1      -1.951  -0.494  -0.679  1.00  0.00    -0.062 C 
HETATM    6  O1  UNL     1       1.497   0.631   0.447  1.00  0.00    -0.390 OA
HETATM    7  C5  UNL     1       2.442   0.542  -0.597  1.00  0.00     0.004 C 
HETATM    8  H1  UNL     1      -0.279  -0.160   2.321  1.00  0.00     0.030 H 
HETATM    9  H2  UNL     1       1.007  -1.384   2.036  1.00  0.00     0.030 H 
HETATM   10  H3  UNL     1      -0.665  -1.723   1.490  1.00  0.00     0.030 H 
HETATM   11  H4  UNL     1       0.724  -1.140  -0.418  1.00  0.00     0.084 H 
HETATM   12  H5  UNL     1      -0.432   0.845  -1.378  1.00  0.00     0.059 H 
HETATM   13  H6  UNL     1      -2.165   2.362  -0.401  1.00  0.00     0.102 HD
HETATM   14  H7  UNL     1      -2.442  -0.808   0.265  1.00  0.00     0.029 H 
HETATM   15  H8  UNL     1      -2.705   0.030  -1.303  1.00  0.00     0.029 H 
HETATM   16  H9  UNL     1      -1.610  -1.394  -1.233  1.00  0.00     0.029 H 
HETATM   17  H10 UNL     1       1.970   0.704  -1.591  1.00  0.00     0.066 H 
HETATM   18  H11 UNL     1       2.965  -0.440  -0.572  1.00  0.00     0.066 H 
HETATM   19  H12 UNL     1       3.205   1.334  -0.453  1.00  0.00     0.066 H 
TER      20      UNL     1 
ENDMDL
