REMARK FAKE_HEAD_ATOM=C5_O2
REMARK REAL_HEAD_ATOM=C2_C3
REMARK DUMMY_ATOM=C5_H10_H11_H12_O2
REMARK TORSION=H4_C2_C3_C4
REMARK TORSION=C2_C3_O1_H6
MODEL 0
HETATM    1  C1  UNL     1       0.177   1.692  -0.984  1.00  0.00    -0.050 C 
HETATM    2  C2  UNL     1       0.186   0.283  -0.382  1.00  0.00     0.059 C 
HETATM    3  C3  UNL     1      -1.240  -0.141   0.026  1.00  0.00     0.057 C 
HETATM    4  O1  UNL     1      -1.707   0.686   1.061  1.00  0.00    -0.393 OA
HETATM    5  C4  UNL     1      -1.266  -1.604   0.483  1.00  0.00    -0.050 C 
HETATM    6  O2  UNL     1       1.023   0.270   0.765  1.00  0.00    -0.389 OA
HETATM    7  C5  UNL     1       2.287  -0.274   0.454  1.00  0.00     0.005 C 
HETATM    8  H1  UNL     1      -0.159   2.438  -0.233  1.00  0.00     0.031 H 
HETATM    9  H2  UNL     1       1.199   1.967  -1.320  1.00  0.00     0.031 H 
HETATM   10  H3  UNL     1      -0.499   1.733  -1.864  1.00  0.00     0.031 H 
HETATM   11  H4  UNL     1       0.521  -0.421  -1.184  1.00  0.00     0.086 H 
HETATM   12  H5  UNL     1      -1.906  -0.046  -0.865  1.00  0.00     0.086 H 
HETATM   13  H6  UNL     1      -2.695   0.588   1.084  1.00  0.00     0.210 HD
HETATM   14  H7  UNL     1      -0.895  -2.268  -0.326  1.00  0.00     0.031 H 
HETATM   15  H8  UNL     1      -0.635  -1.743   1.386  1.00  0.00     0.031 H 
HETATM   16  H9  UNL     1      -2.307  -1.903   0.729  1.00  0.00     0.031 H 
HETATM   17  H10 UNL     1       2.779   0.288  -0.371  1.00  0.00     0.066 H 
HETATM   18  H11 UNL     1       2.937  -0.196   1.349  1.00  0.00     0.066 H 
HETATM   19  H12 UNL     1       2.199  -1.351   0.192  1.00  0.00     0.066 H 
TER      20      UNL     1 
ENDMDL
