REMARK FAKE_HEAD_ATOM=C4_O1
REMARK REAL_HEAD_ATOM=C2_C3
REMARK DUMMY_ATOM=C4_H10_H8_H9_O1
REMARK TORSION=H4_C2_C3_S1
REMARK TORSION=C2_C3_S1_H7
MODEL 0
HETATM    1  C1  UNL     1      -0.666   1.533  -0.003  1.00  0.00    -0.051 C 
HETATM    2  C2  UNL     1       0.018   0.169   0.125  1.00  0.00     0.042 C 
HETATM    3  C3  UNL     1      -0.971  -0.978  -0.149  1.00  0.00    -0.002 C 
HETATM    4  S1  UNL     1      -2.205  -1.145   1.183  1.00  0.00    -0.180 SA
HETATM    5  O1  UNL     1       1.067   0.114  -0.828  1.00  0.00    -0.390 OA
HETATM    6  C4  UNL     1       2.211  -0.502  -0.278  1.00  0.00     0.004 C 
HETATM    7  H1  UNL     1       0.086   2.340   0.127  1.00  0.00     0.030 H 
HETATM    8  H2  UNL     1      -1.442   1.661   0.780  1.00  0.00     0.030 H 
HETATM    9  H3  UNL     1      -1.134   1.644  -1.005  1.00  0.00     0.030 H 
HETATM   10  H4  UNL     1       0.381   0.088   1.180  1.00  0.00     0.083 H 
HETATM   11  H5  UNL     1      -1.485  -0.830  -1.123  1.00  0.00     0.052 H 
HETATM   12  H6  UNL     1      -0.413  -1.936  -0.205  1.00  0.00     0.052 H 
HETATM   13  H7  UNL     1      -3.051  -0.160   0.640  1.00  0.00     0.101 HD
HETATM   14  H8  UNL     1       2.974  -0.608  -1.076  1.00  0.00     0.066 H 
HETATM   15  H9  UNL     1       1.981  -1.519   0.108  1.00  0.00     0.066 H 
HETATM   16  H10 UNL     1       2.649   0.129   0.527  1.00  0.00     0.066 H 
TER      17      UNL     1 
ENDMDL
