REMARK FAKE_HEAD_ATOM=C7_O1
REMARK REAL_HEAD_ATOM=C6_C5
REMARK DUMMY_ATOM=C7_H13_H14_H15_O1
REMARK TORSION=H12_C6_C5_C4
REMARK TORSION=C6_C5_C4_C3
REMARK TORSION=C5_C4_C3_C2
REMARK TORSION=C4_C3_C2_C1
MODEL 0
HETATM    1  C1  UNL     1       4.048  -0.090   0.186  1.00  0.00    -0.077 C 
HETATM    2  C2  UNL     1       2.587  -0.523   0.272  1.00  0.00    -0.069 C 
HETATM    3  C3  UNL     1       1.667   0.680   0.526  1.00  0.00    -0.065 C 
HETATM    4  C4  UNL     1       0.204   0.268   0.752  1.00  0.00    -0.063 C 
HETATM    5  C5  UNL     1      -0.466  -0.263  -0.531  1.00  0.00    -0.041 C 
HETATM    6  C6  UNL     1      -1.992  -0.463  -0.393  1.00  0.00     0.034 C 
HETATM    7  O1  UNL     1      -2.618   0.736   0.036  1.00  0.00    -0.391 OA
HETATM    8  C7  UNL     1      -3.090   1.478  -1.067  1.00  0.00     0.004 C 
HETATM    9  C8  UNL     1      -2.328  -1.575   0.604  1.00  0.00    -0.052 C 
HETATM   10  H1  UNL     1       4.186   0.637  -0.642  1.00  0.00     0.027 H 
HETATM   11  H2  UNL     1       4.369   0.377   1.142  1.00  0.00     0.027 H 
HETATM   12  H3  UNL     1       4.688  -0.976  -0.008  1.00  0.00     0.027 H 
HETATM   13  H4  UNL     1       2.313  -1.018  -0.684  1.00  0.00     0.032 H 
HETATM   14  H5  UNL     1       2.480  -1.261   1.096  1.00  0.00     0.032 H 
HETATM   15  H6  UNL     1       1.731   1.392  -0.326  1.00  0.00     0.033 H 
HETATM   16  H7  UNL     1       2.017   1.213   1.437  1.00  0.00     0.033 H 
HETATM   17  H8  UNL     1      -0.347   1.165   1.110  1.00  0.00     0.033 H 
HETATM   18  H9  UNL     1       0.159  -0.499   1.554  1.00  0.00     0.033 H 
HETATM   19  H10 UNL     1      -0.004  -1.231  -0.820  1.00  0.00     0.036 H 
HETATM   20  H11 UNL     1      -0.278   0.451  -1.361  1.00  0.00     0.036 H 
HETATM   21  H12 UNL     1      -2.375  -0.817  -1.382  1.00  0.00     0.082 H 
HETATM   22  H13 UNL     1      -3.495   2.442  -0.698  1.00  0.00     0.066 H 
HETATM   23  H14 UNL     1      -2.272   1.709  -1.784  1.00  0.00     0.066 H 
HETATM   24  H15 UNL     1      -3.916   0.939  -1.580  1.00  0.00     0.066 H 
HETATM   25  H16 UNL     1      -1.789  -2.510   0.342  1.00  0.00     0.030 H 
HETATM   26  H17 UNL     1      -2.060  -1.275   1.639  1.00  0.00     0.030 H 
HETATM   27  H18 UNL     1      -3.419  -1.780   0.577  1.00  0.00     0.030 H 
TER      28      UNL     1 
ENDMDL
