REMARK FAKE_HEAD_ATOM=C4_O1
REMARK REAL_HEAD_ATOM=C3_C2
REMARK DUMMY_ATOM=C4_H7_H8_H9_O1
REMARK TORSION=H5_C3_C2_C1
MODEL 0
HETATM    1  C1  UNL     1      -1.822   1.160   0.282  1.00  0.00    -0.048 C 
HETATM    2  C2  UNL     1      -0.920  -0.082   0.303  1.00  0.00     0.117 C 
HETATM    3  C3  UNL     1       0.557   0.325   0.164  1.00  0.00     0.045 C 
HETATM    4  O1  UNL     1       1.378  -0.814   0.314  1.00  0.00    -0.394 OA
HETATM    5  C4  UNL     1       2.729  -0.442   0.158  1.00  0.00     0.004 C 
HETATM    6  N1  UNL     1      -1.310  -1.013  -0.764  1.00  0.00    -0.073 N 
HETATM    7  H1  UNL     1      -1.718   1.702  -0.682  1.00  0.00     0.030 H 
HETATM    8  H2  UNL     1      -2.884   0.862   0.412  1.00  0.00     0.030 H 
HETATM    9  H3  UNL     1      -1.552   1.846   1.113  1.00  0.00     0.030 H 
HETATM   10  H4  UNL     1      -1.054  -0.585   1.287  1.00  0.00     0.086 H 
HETATM   11  H5  UNL     1       0.795   1.073   0.956  1.00  0.00     0.077 H 
HETATM   12  H6  UNL     1       0.709   0.796  -0.835  1.00  0.00     0.077 H 
HETATM   13  H7  UNL     1       3.036   0.298   0.930  1.00  0.00     0.066 H 
HETATM   14  H8  UNL     1       2.921  -0.042  -0.863  1.00  0.00     0.066 H 
HETATM   15  H9  UNL     1       3.361  -1.345   0.288  1.00  0.00     0.066 H 
HETATM   16  H10 UNL     1      -1.181  -0.570  -1.704  1.00  0.00     0.274 HD
HETATM   17  H11 UNL     1      -2.313  -1.285  -0.649  1.00  0.00     0.274 HD
HETATM   18  H12 UNL     1      -0.732  -1.882  -0.711  1.00  0.00     0.274 HD
TER      19      UNL     1 
ENDMDL
