REMARK FAKE_HEAD_ATOM=C12_O1
REMARK REAL_HEAD_ATOM=C11_C10
REMARK DUMMY_ATOM=C12_H23_H24_H25_O1
REMARK TORSION=H22_C11_C10_C9
REMARK TORSION=C11_C10_C9_C8
REMARK TORSION=C10_C9_C8_C7
REMARK TORSION=C9_C8_C7_C6
REMARK TORSION=C8_C7_C6_C5
REMARK TORSION=C7_C6_C5_C4
REMARK TORSION=C6_C5_C4_C3
REMARK TORSION=C5_C4_C3_C2
REMARK TORSION=C4_C3_C2_C1
MODEL 0
HETATM    1  C1  UNL     1       6.001   1.563  -0.770  1.00  0.00    -0.077 C 
HETATM    2  C2  UNL     1       5.058   0.552  -1.417  1.00  0.00    -0.069 C 
HETATM    3  C3  UNL     1       3.687   0.555  -0.731  1.00  0.00    -0.065 C 
HETATM    4  C4  UNL     1       2.746  -0.472  -1.379  1.00  0.00    -0.065 C 
HETATM    5  C5  UNL     1       1.321  -0.410  -0.809  1.00  0.00    -0.065 C 
HETATM    6  C6  UNL     1       1.243  -0.912   0.644  1.00  0.00    -0.065 C 
HETATM    7  C7  UNL     1      -0.204  -1.101   1.124  1.00  0.00    -0.065 C 
HETATM    8  C8  UNL     1      -0.958   0.232   1.262  1.00  0.00    -0.065 C 
HETATM    9  C9  UNL     1      -2.305   0.087   1.993  1.00  0.00    -0.063 C 
HETATM   10  C10 UNL     1      -3.316  -0.858   1.314  1.00  0.00    -0.041 C 
HETATM   11  C11 UNL     1      -3.732  -0.409  -0.100  1.00  0.00     0.034 C 
HETATM   12  O1  UNL     1      -4.306   0.886  -0.025  1.00  0.00    -0.391 OA
HETATM   13  C12 UNL     1      -3.928   1.665  -1.139  1.00  0.00     0.004 C 
HETATM   14  C13 UNL     1      -4.765  -1.386  -0.670  1.00  0.00    -0.052 C 
HETATM   15  H1  UNL     1       5.581   2.588  -0.851  1.00  0.00     0.027 H 
HETATM   16  H2  UNL     1       6.983   1.539  -1.287  1.00  0.00     0.027 H 
HETATM   17  H3  UNL     1       6.157   1.314   0.302  1.00  0.00     0.027 H 
HETATM   18  H4  UNL     1       5.511  -0.461  -1.343  1.00  0.00     0.032 H 
HETATM   19  H5  UNL     1       4.941   0.808  -2.492  1.00  0.00     0.032 H 
HETATM   20  H6  UNL     1       3.239   1.570  -0.812  1.00  0.00     0.033 H 
HETATM   21  H7  UNL     1       3.822   0.311   0.344  1.00  0.00     0.033 H 
HETATM   22  H8  UNL     1       3.159  -1.497  -1.253  1.00  0.00     0.033 H 
HETATM   23  H9  UNL     1       2.687  -0.266  -2.471  1.00  0.00     0.033 H 
HETATM   24  H10 UNL     1       0.670  -1.047  -1.447  1.00  0.00     0.033 H 
HETATM   25  H11 UNL     1       0.944   0.633  -0.875  1.00  0.00     0.033 H 
HETATM   26  H12 UNL     1       1.765  -0.204   1.323  1.00  0.00     0.033 H 
HETATM   27  H13 UNL     1       1.759  -1.894   0.718  1.00  0.00     0.033 H 
HETATM   28  H14 UNL     1      -0.176  -1.606   2.115  1.00  0.00     0.033 H 
HETATM   29  H15 UNL     1      -0.737  -1.771   0.416  1.00  0.00     0.033 H 
HETATM   30  H16 UNL     1      -1.119   0.689   0.265  1.00  0.00     0.033 H 
HETATM   31  H17 UNL     1      -0.333   0.942   1.848  1.00  0.00     0.033 H 
HETATM   32  H18 UNL     1      -2.114  -0.285   3.023  1.00  0.00     0.033 H 
HETATM   33  H19 UNL     1      -2.762   1.095   2.098  1.00  0.00     0.033 H 
HETATM   34  H20 UNL     1      -4.222  -0.902   1.958  1.00  0.00     0.036 H 
HETATM   35  H21 UNL     1      -2.900  -1.888   1.279  1.00  0.00     0.036 H 
HETATM   36  H22 UNL     1      -2.829  -0.460  -0.755  1.00  0.00     0.082 H 
HETATM   37  H23 UNL     1      -4.208   1.172  -2.096  1.00  0.00     0.066 H 
HETATM   38  H24 UNL     1      -4.462   2.636  -1.090  1.00  0.00     0.066 H 
HETATM   39  H25 UNL     1      -2.837   1.879  -1.119  1.00  0.00     0.066 H 
HETATM   40  H26 UNL     1      -5.684  -1.391  -0.044  1.00  0.00     0.030 H 
HETATM   41  H27 UNL     1      -5.043  -1.090  -1.703  1.00  0.00     0.030 H 
HETATM   42  H28 UNL     1      -4.346  -2.415  -0.706  1.00  0.00     0.030 H 
TER      43      UNL     1 
ENDMDL
