REMARK FAKE_HEAD_ATOM=C7_O2
REMARK REAL_HEAD_ATOM=C6_C5
REMARK DUMMY_ATOM=C7_H6_H7_H8_O2
REMARK TORSION=H4_C6_C5_C4
REMARK TORSION=C5_C4_C3_C2
REMARK TORSION=C3_C2_C1_O1
REMARK TORSION=C2_C1_O1_H1
MODEL 0
HETATM    1  O1  UNL     1       4.801   0.791   0.201  1.00  0.00    -0.389 OA
HETATM    2  C1  UNL     1       4.033  -0.289   0.654  1.00  0.00     0.072 C 
HETATM    3  C2  UNL     1       2.648  -0.149   0.193  1.00  0.00    -0.067 C 
HETATM    4  C3  UNL     1       1.510  -0.034  -0.187  1.00  0.00    -0.013 C 
HETATM    5  C4  UNL     1       0.177   0.100  -0.631  1.00  0.00    -0.013 C 
HETATM    6  C5  UNL     1      -0.962   0.215  -1.010  1.00  0.00    -0.066 C 
HETATM    7  C6  UNL     1      -2.349   0.355  -1.469  1.00  0.00     0.074 C 
HETATM    8  O2  UNL     1      -3.144  -0.693  -0.949  1.00  0.00    -0.384 OA
HETATM    9  C7  UNL     1      -3.681  -0.324   0.303  1.00  0.00     0.005 C 
HETATM   10  H1  UNL     1       5.005   0.614  -0.755  1.00  0.00     0.210 HD
HETATM   11  H2  UNL     1       4.042  -0.297   1.764  1.00  0.00     0.093 H 
HETATM   12  H3  UNL     1       4.454  -1.254   0.292  1.00  0.00     0.093 H 
HETATM   13  H4  UNL     1      -2.351   0.275  -2.576  1.00  0.00     0.093 H 
HETATM   14  H5  UNL     1      -2.733   1.371  -1.217  1.00  0.00     0.093 H 
HETATM   15  H6  UNL     1      -2.880  -0.045   1.024  1.00  0.00     0.066 H 
HETATM   16  H7  UNL     1      -4.409   0.509   0.190  1.00  0.00     0.066 H 
HETATM   17  H8  UNL     1      -4.226  -1.193   0.724  1.00  0.00     0.066 H 
TER      18      UNL     1 
ENDMDL
