REMARK FAKE_HEAD_ATOM=C1_O1
REMARK REAL_HEAD_ATOM=C2_C3
REMARK DUMMY_ATOM=C1_H1_H2_H3_O1
REMARK TORSION=H4_C2_C3_C4
REMARK TORSION=C2_C3_C4_C5
MODEL 0
HETATM    1  C1  UNL     1       2.829   0.566  -0.428  1.00  0.00     0.004 C 
HETATM    2  O1  UNL     1       1.784  -0.133  -1.068  1.00  0.00    -0.394 OA
HETATM    3  C2  UNL     1       1.059  -0.910  -0.132  1.00  0.00     0.045 C 
HETATM    4  C3  UNL     1      -0.196  -0.157   0.362  1.00  0.00     0.120 C 
HETATM    5  C4  UNL     1      -1.141   0.157  -0.825  1.00  0.00    -0.040 C 
HETATM    6  C5  UNL     1      -2.306   1.066  -0.433  1.00  0.00    -0.075 C 
HETATM    7  N1  UNL     1      -0.883  -0.951   1.391  1.00  0.00    -0.073 N 
HETATM    8  H1  UNL     1       3.313   1.235  -1.169  1.00  0.00     0.066 H 
HETATM    9  H2  UNL     1       3.604  -0.140  -0.055  1.00  0.00     0.066 H 
HETATM   10  H3  UNL     1       2.450   1.200   0.403  1.00  0.00     0.066 H 
HETATM   11  H4  UNL     1       0.737  -1.845  -0.640  1.00  0.00     0.077 H 
HETATM   12  H5  UNL     1       1.680  -1.238   0.736  1.00  0.00     0.077 H 
HETATM   13  H6  UNL     1       0.134   0.803   0.817  1.00  0.00     0.087 H 
HETATM   14  H7  UNL     1      -0.570   0.675  -1.625  1.00  0.00     0.035 H 
HETATM   15  H8  UNL     1      -1.542  -0.787  -1.254  1.00  0.00     0.035 H 
HETATM   16  H9  UNL     1      -2.855   1.376  -1.347  1.00  0.00     0.027 H 
HETATM   17  H10 UNL     1      -3.019   0.530   0.227  1.00  0.00     0.027 H 
HETATM   18  H11 UNL     1      -1.934   1.977   0.081  1.00  0.00     0.027 H 
HETATM   19  H12 UNL     1      -1.648  -0.391   1.830  1.00  0.00     0.274 HD
HETATM   20  H13 UNL     1      -1.283  -1.824   0.977  1.00  0.00     0.274 HD
HETATM   21  H14 UNL     1      -0.213  -1.210   2.151  1.00  0.00     0.274 HD
TER      22      UNL     1 
ENDMDL
