REMARK FAKE_HEAD_ATOM=C11_O1
REMARK REAL_HEAD_ATOM=C10_C9
REMARK DUMMY_ATOM=C11_H21_H22_H23_O1
REMARK TORSION=H20_C10_C9_C8
REMARK TORSION=C10_C9_C8_C7
REMARK TORSION=C9_C8_C7_C6
REMARK TORSION=C8_C7_C6_C5
REMARK TORSION=C7_C6_C5_C4
REMARK TORSION=C6_C5_C4_C3
REMARK TORSION=C5_C4_C3_C2
REMARK TORSION=C4_C3_C2_C1
MODEL 0
HETATM    1  C1  UNL     1      -5.286  -0.208   0.190  1.00  0.00    -0.077 C 
HETATM    2  C2  UNL     1      -4.481   0.041  -1.085  1.00  0.00    -0.069 C 
HETATM    3  C3  UNL     1      -3.450   1.175  -0.937  1.00  0.00    -0.065 C 
HETATM    4  C4  UNL     1      -2.374   0.942   0.139  1.00  0.00    -0.065 C 
HETATM    5  C5  UNL     1      -1.460  -0.253  -0.179  1.00  0.00    -0.065 C 
HETATM    6  C6  UNL     1      -0.372  -0.474   0.888  1.00  0.00    -0.065 C 
HETATM    7  C7  UNL     1       0.652   0.671   1.029  1.00  0.00    -0.065 C 
HETATM    8  C8  UNL     1       1.387   1.059  -0.269  1.00  0.00    -0.063 C 
HETATM    9  C9  UNL     1       2.133  -0.096  -0.966  1.00  0.00    -0.041 C 
HETATM   10  C10 UNL     1       3.270  -0.695  -0.117  1.00  0.00     0.034 C 
HETATM   11  O1  UNL     1       4.218   0.321   0.170  1.00  0.00    -0.391 OA
HETATM   12  C11 UNL     1       4.708   0.189   1.487  1.00  0.00     0.004 C 
HETATM   13  C12 UNL     1       3.959  -1.821  -0.895  1.00  0.00    -0.052 C 
HETATM   14  H1  UNL     1      -4.646  -0.666   0.973  1.00  0.00     0.027 H 
HETATM   15  H2  UNL     1      -5.718   0.742   0.569  1.00  0.00     0.027 H 
HETATM   16  H3  UNL     1      -6.116  -0.912  -0.030  1.00  0.00     0.027 H 
HETATM   17  H4  UNL     1      -5.190   0.325  -1.892  1.00  0.00     0.032 H 
HETATM   18  H5  UNL     1      -3.988  -0.900  -1.408  1.00  0.00     0.032 H 
HETATM   19  H6  UNL     1      -3.990   2.117  -0.697  1.00  0.00     0.033 H 
HETATM   20  H7  UNL     1      -2.951   1.331  -1.919  1.00  0.00     0.033 H 
HETATM   21  H8  UNL     1      -2.845   0.810   1.135  1.00  0.00     0.033 H 
HETATM   22  H9  UNL     1      -1.761   1.866   0.186  1.00  0.00     0.033 H 
HETATM   23  H10 UNL     1      -1.000  -0.129  -1.182  1.00  0.00     0.033 H 
HETATM   24  H11 UNL     1      -2.070  -1.179  -0.212  1.00  0.00     0.033 H 
HETATM   25  H12 UNL     1      -0.864  -0.626   1.874  1.00  0.00     0.033 H 
HETATM   26  H13 UNL     1       0.166  -1.418   0.661  1.00  0.00     0.033 H 
HETATM   27  H14 UNL     1       0.142   1.573   1.430  1.00  0.00     0.033 H 
HETATM   28  H15 UNL     1       1.396   0.385   1.801  1.00  0.00     0.033 H 
HETATM   29  H16 UNL     1       2.112   1.868  -0.033  1.00  0.00     0.033 H 
HETATM   30  H17 UNL     1       0.660   1.499  -0.984  1.00  0.00     0.033 H 
HETATM   31  H18 UNL     1       2.563   0.301  -1.912  1.00  0.00     0.036 H 
HETATM   32  H19 UNL     1       1.412  -0.891  -1.252  1.00  0.00     0.036 H 
HETATM   33  H20 UNL     1       2.814  -1.150   0.794  1.00  0.00     0.082 H 
HETATM   34  H21 UNL     1       5.506   0.943   1.645  1.00  0.00     0.066 H 
HETATM   35  H22 UNL     1       3.903   0.388   2.228  1.00  0.00     0.066 H 
HETATM   36  H23 UNL     1       5.154  -0.816   1.657  1.00  0.00     0.066 H 
HETATM   37  H24 UNL     1       4.415  -1.427  -1.829  1.00  0.00     0.030 H 
HETATM   38  H25 UNL     1       3.226  -2.614  -1.156  1.00  0.00     0.030 H 
HETATM   39  H26 UNL     1       4.759  -2.278  -0.276  1.00  0.00     0.030 H 
TER      40      UNL     1 
ENDMDL
