REMARK FAKE_HEAD_ATOM=C4_O1
REMARK REAL_HEAD_ATOM=C2_C3
REMARK DUMMY_ATOM=C4_H10_H8_H9_O1
REMARK TORSION=H4_C2_C3_S1
REMARK TORSION=C2_C3_S1_H7
MODEL 0
HETATM    1  C1  UNL     1      -0.360   1.679  -0.003  1.00  0.00    -0.051 C 
HETATM    2  C2  UNL     1       0.047   0.212   0.169  1.00  0.00     0.042 C 
HETATM    3  C3  UNL     1       1.504   0.020  -0.265  1.00  0.00    -0.002 C 
HETATM    4  S1  UNL     1       2.038  -1.694   0.039  1.00  0.00    -0.180 SA
HETATM    5  O1  UNL     1      -0.784  -0.603  -0.642  1.00  0.00    -0.390 OA
HETATM    6  C4  UNL     1      -1.820  -1.177   0.124  1.00  0.00     0.004 C 
HETATM    7  H1  UNL     1       0.295   2.336   0.607  1.00  0.00     0.030 H 
HETATM    8  H2  UNL     1      -1.408   1.825   0.334  1.00  0.00     0.030 H 
HETATM    9  H3  UNL     1      -0.285   1.980  -1.070  1.00  0.00     0.030 H 
HETATM   10  H4  UNL     1      -0.009  -0.039   1.257  1.00  0.00     0.083 H 
HETATM   11  H5  UNL     1       2.167   0.700   0.312  1.00  0.00     0.052 H 
HETATM   12  H6  UNL     1       1.615   0.246  -1.347  1.00  0.00     0.052 H 
HETATM   13  H7  UNL     1       3.330  -1.449  -0.463  1.00  0.00     0.101 HD
HETATM   14  H8  UNL     1      -2.494  -1.738  -0.555  1.00  0.00     0.066 H 
HETATM   15  H9  UNL     1      -2.427  -0.399   0.637  1.00  0.00     0.066 H 
HETATM   16  H10 UNL     1      -1.408  -1.899   0.864  1.00  0.00     0.066 H 
TER      17      UNL     1 
ENDMDL
