REMARK FAKE_HEAD_ATOM=C4_O1
REMARK REAL_HEAD_ATOM=C3_C1
REMARK DUMMY_ATOM=C4_H6_H7_H8_O1
REMARK TORSION=H4_C3_C1_C2
REMARK TORSION=C3_C1_C2_CL2
MODEL 0
HETATM    1 CL1  UNL     1      -0.975  -1.781   1.398  1.00  0.00    -0.122 Cl
HETATM    2  C1  UNL     1      -0.985  -0.744  -0.059  1.00  0.00     0.050 C 
HETATM    3  C2  UNL     1      -2.302   0.041  -0.153  1.00  0.00     0.020 C 
HETATM    4 CL2  UNL     1      -2.556   1.129   1.243  1.00  0.00    -0.129 Cl
HETATM    5  C3  UNL     1       0.241   0.177  -0.071  1.00  0.00     0.035 C 
HETATM    6  O1  UNL     1       1.413  -0.608  -0.153  1.00  0.00    -0.394 OA
HETATM    7  C4  UNL     1       2.543   0.236  -0.153  1.00  0.00     0.004 C 
HETATM    8  H1  UNL     1      -0.926  -1.414  -0.945  1.00  0.00     0.069 H 
HETATM    9  H2  UNL     1      -2.315   0.647  -1.083  1.00  0.00     0.058 H 
HETATM   10  H3  UNL     1      -3.152  -0.672  -0.200  1.00  0.00     0.058 H 
HETATM   11  H4  UNL     1       0.245   0.790   0.860  1.00  0.00     0.076 H 
HETATM   12  H5  UNL     1       0.168   0.853  -0.954  1.00  0.00     0.076 H 
HETATM   13  H6  UNL     1       2.610   0.818   0.793  1.00  0.00     0.066 H 
HETATM   14  H7  UNL     1       2.537   0.919  -1.031  1.00  0.00     0.066 H 
HETATM   15  H8  UNL     1       3.453  -0.393  -0.224  1.00  0.00     0.066 H 
TER      16      UNL     1 
ENDMDL
