REMARK FAKE_HEAD_ATOM=C6_O1
REMARK REAL_HEAD_ATOM=C3_C2
REMARK DUMMY_ATOM=C6_H12_H13_H14_O1
REMARK TORSION=H6_C3_C4_C5
REMARK TORSION=H6_C3_C2_C1
MODEL 0
HETATM    1  C1  UNL     1       1.221  -1.635  -1.092  1.00  0.00    -0.074 C 
HETATM    2  C2  UNL     1       1.272  -0.542  -0.026  1.00  0.00    -0.044 C 
HETATM    3  C3  UNL     1      -0.137  -0.027   0.330  1.00  0.00     0.037 C 
HETATM    4  C4  UNL     1      -0.071   1.088   1.395  1.00  0.00    -0.044 C 
HETATM    5  C5  UNL     1       0.479   2.408   0.851  1.00  0.00    -0.074 C 
HETATM    6  O1  UNL     1      -0.890  -1.109   0.856  1.00  0.00    -0.391 OA
HETATM    7  C6  UNL     1      -2.202  -1.105   0.337  1.00  0.00     0.004 C 
HETATM    8  H1  UNL     1       0.667  -2.521  -0.717  1.00  0.00     0.027 H 
HETATM    9  H2  UNL     1       2.254  -1.950  -1.350  1.00  0.00     0.027 H 
HETATM   10  H3  UNL     1       0.727  -1.255  -2.012  1.00  0.00     0.027 H 
HETATM   11  H4  UNL     1       1.767  -0.947   0.883  1.00  0.00     0.036 H 
HETATM   12  H5  UNL     1       1.895   0.288  -0.420  1.00  0.00     0.036 H 
HETATM   13  H6  UNL     1      -0.578   0.400  -0.606  1.00  0.00     0.083 H 
HETATM   14  H7  UNL     1       0.545   0.758   2.260  1.00  0.00     0.036 H 
HETATM   15  H8  UNL     1      -1.098   1.282   1.776  1.00  0.00     0.036 H 
HETATM   16  H9  UNL     1       1.554   2.315   0.597  1.00  0.00     0.027 H 
HETATM   17  H10 UNL     1      -0.090   2.726  -0.048  1.00  0.00     0.027 H 
HETATM   18  H11 UNL     1       0.377   3.196   1.627  1.00  0.00     0.027 H 
HETATM   19  H12 UNL     1      -2.783  -1.910   0.834  1.00  0.00     0.066 H 
HETATM   20  H13 UNL     1      -2.193  -1.318  -0.754  1.00  0.00     0.066 H 
HETATM   21  H14 UNL     1      -2.717  -0.140   0.541  1.00  0.00     0.066 H 
TER      22      UNL     1 
ENDMDL
