REMARK FAKE_HEAD_ATOM=C1_O1
REMARK REAL_HEAD_ATOM=C2_C3
REMARK DUMMY_ATOM=C1_H1_H2_H3_O1
REMARK TORSION=H4_C2_C3_C4
MODEL 0
HETATM    1  C1  UNL     1       2.340  -0.937  -0.658  1.00  0.00     0.004 C 
HETATM    2  O1  UNL     1       1.238  -1.028   0.218  1.00  0.00    -0.391 OA
HETATM    3  C2  UNL     1       0.479   0.172   0.203  1.00  0.00     0.037 C 
HETATM    4  C3  UNL     1      -1.029  -0.192   0.142  1.00  0.00    -0.036 C 
HETATM    5  C4  UNL     1      -1.325  -1.055  -1.095  1.00  0.00    -0.071 C 
HETATM    6  C5  UNL     1      -1.929   1.055   0.120  1.00  0.00    -0.071 C 
HETATM    7  C6  UNL     1       0.823   0.970   1.469  1.00  0.00    -0.052 C 
HETATM    8  H1  UNL     1       1.997  -0.864  -1.714  1.00  0.00     0.066 H 
HETATM    9  H2  UNL     1       2.993  -0.074  -0.400  1.00  0.00     0.066 H 
HETATM   10  H3  UNL     1       2.946  -1.861  -0.563  1.00  0.00     0.066 H 
HETATM   11  H4  UNL     1       0.702   0.823  -0.679  1.00  0.00     0.083 H 
HETATM   12  H5  UNL     1      -1.291  -0.792   1.043  1.00  0.00     0.042 H 
HETATM   13  H6  UNL     1      -1.058  -0.509  -2.025  1.00  0.00     0.028 H 
HETATM   14  H7  UNL     1      -0.749  -2.004  -1.057  1.00  0.00     0.028 H 
HETATM   15  H8  UNL     1      -2.403  -1.320  -1.132  1.00  0.00     0.028 H 
HETATM   16  H9  UNL     1      -2.992   0.762  -0.023  1.00  0.00     0.028 H 
HETATM   17  H10 UNL     1      -1.634   1.738  -0.705  1.00  0.00     0.028 H 
HETATM   18  H11 UNL     1      -1.871   1.599   1.085  1.00  0.00     0.028 H 
HETATM   19  H12 UNL     1       0.454   0.444   2.375  1.00  0.00     0.030 H 
HETATM   20  H13 UNL     1       0.383   1.988   1.427  1.00  0.00     0.030 H 
HETATM   21  H14 UNL     1       1.923   1.088   1.555  1.00  0.00     0.030 H 
TER      22      UNL     1 
ENDMDL
