REMARK FAKE_HEAD_ATOM=C6_O2
REMARK REAL_HEAD_ATOM=C2_C3
REMARK DUMMY_ATOM=C6_H12_H13_H14_O2
REMARK TORSION=H4_C2_C3_C4
REMARK TORSION=C2_C3_C4_C5
REMARK TORSION=C3_C4_C5_O1
REMARK TORSION=C4_C5_O1_H11
MODEL 0
HETATM    1  C1  UNL     1      -1.867   0.590   1.531  1.00  0.00    -0.052 C 
HETATM    2  C2  UNL     1      -1.069   0.192   0.285  1.00  0.00     0.034 C 
HETATM    3  C3  UNL     1       0.433   0.419   0.528  1.00  0.00    -0.039 C 
HETATM    4  C4  UNL     1       1.257   0.130  -0.736  1.00  0.00    -0.043 C 
HETATM    5  C5  UNL     1       2.746   0.402  -0.516  1.00  0.00     0.017 C 
HETATM    6  O1  UNL     1       3.264  -0.490   0.432  1.00  0.00    -0.401 OA
HETATM    7  O2  UNL     1      -1.290  -1.182   0.012  1.00  0.00    -0.391 OA
HETATM    8  C6  UNL     1      -2.229  -1.338  -1.029  1.00  0.00     0.004 C 
HETATM    9  H1  UNL     1      -2.952   0.444   1.349  1.00  0.00     0.030 H 
HETATM   10  H2  UNL     1      -1.696   1.660   1.775  1.00  0.00     0.030 H 
HETATM   11  H3  UNL     1      -1.566  -0.034   2.400  1.00  0.00     0.030 H 
HETATM   12  H4  UNL     1      -1.378   0.870  -0.549  1.00  0.00     0.082 H 
HETATM   13  H5  UNL     1       0.600   1.476   0.833  1.00  0.00     0.036 H 
HETATM   14  H6  UNL     1       0.776  -0.240   1.356  1.00  0.00     0.036 H 
HETATM   15  H7  UNL     1       0.898   0.778  -1.565  1.00  0.00     0.036 H 
HETATM   16  H8  UNL     1       1.124  -0.930  -1.044  1.00  0.00     0.036 H 
HETATM   17  H9  UNL     1       2.892   1.451  -0.175  1.00  0.00     0.073 H 
HETATM   18  H10 UNL     1       3.281   0.267  -1.483  1.00  0.00     0.073 H 
HETATM   19  H11 UNL     1       4.223  -0.258   0.532  1.00  0.00     0.209 HD
HETATM   20  H12 UNL     1      -2.435  -2.420  -1.163  1.00  0.00     0.066 H 
HETATM   21  H13 UNL     1      -1.821  -0.950  -1.989  1.00  0.00     0.066 H 
HETATM   22  H14 UNL     1      -3.192  -0.837  -0.786  1.00  0.00     0.066 H 
TER      23      UNL     1 
ENDMDL
