REMARK FAKE_HEAD_ATOM=C6_O1
REMARK REAL_HEAD_ATOM=C5_C4
REMARK DUMMY_ATOM=C6_H10_H8_H9_O1
REMARK TORSION=H6_C5_C4_C3
REMARK TORSION=C4_C3_C2_C1
MODEL 0
HETATM    1  C1  UNL     1      -3.164  -0.364   0.433  1.00  0.00    -0.067 C 
HETATM    2  C2  UNL     1      -2.474   0.971   0.185  1.00  0.00    -0.013 C 
HETATM    3  C3  UNL     1      -1.027   0.781   0.034  1.00  0.00    -0.105 C 
HETATM    4  C4  UNL     1       0.162   0.625  -0.090  1.00  0.00    -0.081 C 
HETATM    5  C5  UNL     1       1.605   0.434  -0.241  1.00  0.00     0.073 C 
HETATM    6  O1  UNL     1       1.943  -0.858   0.211  1.00  0.00    -0.384 OA
HETATM    7  C6  UNL     1       3.333  -1.050   0.070  1.00  0.00     0.005 C 
HETATM    8  H1  UNL     1      -2.994  -1.053  -0.423  1.00  0.00     0.028 H 
HETATM    9  H2  UNL     1      -4.257  -0.202   0.544  1.00  0.00     0.028 H 
HETATM   10  H3  UNL     1      -2.778  -0.833   1.364  1.00  0.00     0.028 H 
HETATM   11  H4  UNL     1      -2.878   1.433  -0.740  1.00  0.00     0.051 H 
HETATM   12  H5  UNL     1      -2.663   1.653   1.040  1.00  0.00     0.051 H 
HETATM   13  H6  UNL     1       1.857   0.560  -1.317  1.00  0.00     0.093 H 
HETATM   14  H7  UNL     1       2.119   1.216   0.362  1.00  0.00     0.093 H 
HETATM   15  H8  UNL     1       3.643  -0.983  -0.997  1.00  0.00     0.066 H 
HETATM   16  H9  UNL     1       3.906  -0.324   0.688  1.00  0.00     0.066 H 
HETATM   17  H10 UNL     1       3.587  -2.069   0.429  1.00  0.00     0.066 H 
TER      18      UNL     1 
ENDMDL
