REMARK FAKE_HEAD_ATOM=C4_O2
REMARK REAL_HEAD_ATOM=C2_C1
REMARK DUMMY_ATOM=C4_H10_H11_H12_O2
REMARK TORSION=H6_C2_C3_O1
REMARK TORSION=C2_C3_O1_H9
REMARK TORSION=H6_C2_C1_N1
MODEL 0
HETATM    1  N1  UNL     1       2.020  -0.377   0.619  1.00  0.00    -0.077 N 
HETATM    2  C1  UNL     1       0.598  -0.527   0.937  1.00  0.00     0.105 C 
HETATM    3  C2  UNL     1      -0.323   0.057  -0.160  1.00  0.00     0.081 C 
HETATM    4  C3  UNL     1      -0.197   1.585  -0.264  1.00  0.00     0.042 C 
HETATM    5  O1  UNL     1       0.984   1.937  -0.931  1.00  0.00    -0.398 OA
HETATM    6  O2  UNL     1      -1.669  -0.245   0.175  1.00  0.00    -0.387 OA
HETATM    7  C4  UNL     1      -2.134  -1.355  -0.562  1.00  0.00     0.005 C 
HETATM    8  H1  UNL     1       2.316   0.618   0.743  1.00  0.00     0.274 HD
HETATM    9  H2  UNL     1       2.579  -0.965   1.278  1.00  0.00     0.274 HD
HETATM   10  H3  UNL     1       2.215  -0.693  -0.358  1.00  0.00     0.274 HD
HETATM   11  H4  UNL     1       0.380  -0.043   1.915  1.00  0.00     0.079 H 
HETATM   12  H5  UNL     1       0.372  -1.610   1.051  1.00  0.00     0.079 H 
HETATM   13  H6  UNL     1      -0.021  -0.366  -1.151  1.00  0.00     0.089 H 
HETATM   14  H7  UNL     1      -0.219   2.044   0.750  1.00  0.00     0.077 H 
HETATM   15  H8  UNL     1      -1.064   1.979  -0.842  1.00  0.00     0.077 H 
HETATM   16  H9  UNL     1       1.010   2.929  -0.941  1.00  0.00     0.209 HD
HETATM   17  H10 UNL     1      -2.204  -1.108  -1.644  1.00  0.00     0.066 H 
HETATM   18  H11 UNL     1      -1.486  -2.247  -0.409  1.00  0.00     0.066 H 
HETATM   19  H12 UNL     1      -3.153  -1.614  -0.207  1.00  0.00     0.066 H 
TER      20      UNL     1 
ENDMDL
