REMARK FAKE_HEAD_ATOM=C5_O1
REMARK REAL_HEAD_ATOM=C4_C3
REMARK DUMMY_ATOM=C5_H10_H11_H9_O1
REMARK TORSION=H7_C4_C3_C2
REMARK TORSION=C4_C3_C2_C1
REMARK TORSION=C3_C2_O2_H12
MODEL 0
HETATM    1  C1  UNL     1      -2.548   0.269   0.928  1.00  0.00    -0.052 C 
HETATM    2  C2  UNL     1      -1.518  -0.292  -0.058  1.00  0.00     0.034 C 
HETATM    3  C3  UNL     1      -0.087  -0.162   0.499  1.00  0.00    -0.022 C 
HETATM    4  C4  UNL     1       0.947  -0.812  -0.429  1.00  0.00     0.021 C 
HETATM    5  O1  UNL     1       2.230  -0.771   0.167  1.00  0.00    -0.396 OA
HETATM    6  C5  UNL     1       2.961   0.337  -0.312  1.00  0.00     0.004 C 
HETATM    7  O2  UNL     1      -1.638   0.349  -1.304  1.00  0.00    -0.396 OA
HETATM    8  H1  UNL     1      -3.569   0.167   0.505  1.00  0.00     0.030 H 
HETATM    9  H2  UNL     1      -2.506  -0.291   1.886  1.00  0.00     0.030 H 
HETATM   10  H3  UNL     1      -2.350   1.344   1.130  1.00  0.00     0.030 H 
HETATM   11  H4  UNL     1      -1.746  -1.371  -0.203  1.00  0.00     0.082 H 
HETATM   12  H5  UNL     1      -0.034  -0.661   1.492  1.00  0.00     0.039 H 
HETATM   13  H6  UNL     1       0.162   0.911   0.643  1.00  0.00     0.039 H 
HETATM   14  H7  UNL     1       0.675  -1.880  -0.567  1.00  0.00     0.074 H 
HETATM   15  H8  UNL     1       0.912  -0.345  -1.442  1.00  0.00     0.074 H 
HETATM   16  H9  UNL     1       3.199   0.214  -1.392  1.00  0.00     0.066 H 
HETATM   17  H10 UNL     1       3.921   0.393   0.240  1.00  0.00     0.066 H 
HETATM   18  H11 UNL     1       2.417   1.292  -0.141  1.00  0.00     0.066 H 
HETATM   19  H12 UNL     1      -1.427   1.310  -1.169  1.00  0.00     0.210 HD
TER      20      UNL     1 
ENDMDL
