REMARK FAKE_HEAD_ATOM=C6_O1
REMARK REAL_HEAD_ATOM=C5_C4
REMARK DUMMY_ATOM=C6_H11_H12_H13_O1
REMARK TORSION=H9_C5_C4_C3
REMARK TORSION=C5_C4_C3_C2
REMARK TORSION=C5_C4_O2_H14
REMARK TORSION=C4_C3_C2_C1
MODEL 0
HETATM    1  C1  UNL     1      -3.019   0.522   0.378  1.00  0.00    -0.076 C 
HETATM    2  C2  UNL     1      -2.386  -0.191  -0.816  1.00  0.00    -0.066 C 
HETATM    3  C3  UNL     1      -0.995  -0.765  -0.499  1.00  0.00    -0.039 C 
HETATM    4  C4  UNL     1       0.081   0.320  -0.274  1.00  0.00     0.056 C 
HETATM    5  C5  UNL     1       1.449  -0.313   0.021  1.00  0.00     0.043 C 
HETATM    6  O1  UNL     1       2.394   0.709   0.256  1.00  0.00    -0.393 OA
HETATM    7  C6  UNL     1       3.653   0.131   0.520  1.00  0.00     0.004 C 
HETATM    8  O2  UNL     1       0.169   1.184  -1.381  1.00  0.00    -0.393 OA
HETATM    9  H1  UNL     1      -3.026  -0.141   1.270  1.00  0.00     0.027 H 
HETATM   10  H2  UNL     1      -2.469   1.456   0.615  1.00  0.00     0.027 H 
HETATM   11  H3  UNL     1      -4.068   0.793   0.132  1.00  0.00     0.027 H 
HETATM   12  H4  UNL     1      -3.051  -1.032  -1.110  1.00  0.00     0.032 H 
HETATM   13  H5  UNL     1      -2.331   0.505  -1.680  1.00  0.00     0.032 H 
HETATM   14  H6  UNL     1      -0.685  -1.412  -1.350  1.00  0.00     0.036 H 
HETATM   15  H7  UNL     1      -1.063  -1.416   0.400  1.00  0.00     0.036 H 
HETATM   16  H8  UNL     1      -0.201   0.924   0.614  1.00  0.00     0.086 H 
HETATM   17  H9  UNL     1       1.753  -0.939  -0.850  1.00  0.00     0.078 H 
HETATM   18  H10 UNL     1       1.350  -0.964   0.921  1.00  0.00     0.078 H 
HETATM   19  H11 UNL     1       4.383   0.945   0.707  1.00  0.00     0.066 H 
HETATM   20  H12 UNL     1       3.621  -0.507   1.431  1.00  0.00     0.066 H 
HETATM   21  H13 UNL     1       4.018  -0.454  -0.353  1.00  0.00     0.066 H 
HETATM   22  H14 UNL     1       0.418   0.635  -2.170  1.00  0.00     0.210 HD
TER      23      UNL     1 
ENDMDL
