REMARK FAKE_HEAD_ATOM=C6_O1
REMARK REAL_HEAD_ATOM=C5_C4
REMARK DUMMY_ATOM=C6_H10_H8_H9_O1
REMARK TORSION=H6_C5_C4_C3
REMARK TORSION=C5_C4_C3_C2
MODEL 0
HETATM    1  C1  UNL     1       3.333   0.815   0.347  1.00  0.00    -0.011 C 
HETATM    2  C2  UNL     1       2.344  -0.023   0.470  1.00  0.00    -0.176 C 
HETATM    3  C3  UNL     1       1.349  -0.862   0.592  1.00  0.00     0.009 C 
HETATM    4  C4  UNL     1      -0.053  -0.376   0.808  1.00  0.00    -0.032 C 
HETATM    5  C5  UNL     1      -0.598   0.340  -0.433  1.00  0.00     0.020 C 
HETATM    6  O1  UNL     1      -1.911   0.807  -0.188  1.00  0.00    -0.396 OA
HETATM    7  C6  UNL     1      -2.861  -0.098  -0.707  1.00  0.00     0.004 C 
HETATM    8  H1  UNL     1       3.146   1.824   0.007  1.00  0.00     0.051 H 
HETATM    9  H2  UNL     1       4.340   0.502   0.586  1.00  0.00     0.051 H 
HETATM   10  H3  UNL     1       1.556  -1.924   0.605  1.00  0.00     0.060 H 
HETATM   11  H4  UNL     1      -0.698  -1.250   1.040  1.00  0.00     0.038 H 
HETATM   12  H5  UNL     1      -0.081   0.311   1.683  1.00  0.00     0.038 H 
HETATM   13  H6  UNL     1       0.039   1.226  -0.642  1.00  0.00     0.074 H 
HETATM   14  H7  UNL     1      -0.517  -0.323  -1.329  1.00  0.00     0.074 H 
HETATM   15  H8  UNL     1      -2.815  -0.123  -1.818  1.00  0.00     0.066 H 
HETATM   16  H9  UNL     1      -2.724  -1.120  -0.290  1.00  0.00     0.066 H 
HETATM   17  H10 UNL     1      -3.875   0.250  -0.419  1.00  0.00     0.066 H 
TER      18      UNL     1 
ENDMDL
