REMARK FAKE_HEAD_ATOM=C4_O1
REMARK REAL_HEAD_ATOM=C3_C2
REMARK DUMMY_ATOM=C4_H6_H7_H8_O1
REMARK TORSION=H4_C3_C2_C1
MODEL 0
HETATM    1  C1  UNL     1       1.892   0.527  -0.164  1.00  0.00    -0.123 C 
HETATM    2  C2  UNL     1       1.175  -0.554   0.158  1.00  0.00    -0.090 C 
HETATM    3  C3  UNL     1      -0.133  -0.868  -0.515  1.00  0.00     0.033 C 
HETATM    4  O1  UNL     1      -1.192  -0.802   0.419  1.00  0.00    -0.392 OA
HETATM    5  C4  UNL     1      -1.702   0.512   0.485  1.00  0.00     0.004 C 
HETATM    6  H1  UNL     1       1.558   1.214  -0.935  1.00  0.00     0.066 H 
HETATM    7  H2  UNL     1       2.825   0.731   0.352  1.00  0.00     0.066 H 
HETATM    8  H3  UNL     1       1.530  -1.210   0.947  1.00  0.00     0.078 H 
HETATM    9  H4  UNL     1      -0.305  -0.231  -1.416  1.00  0.00     0.080 H 
HETATM   10  H5  UNL     1      -0.073  -1.911  -0.889  1.00  0.00     0.080 H 
HETATM   11  H6  UNL     1      -0.910   1.245   0.752  1.00  0.00     0.066 H 
HETATM   12  H7  UNL     1      -2.477   0.551   1.279  1.00  0.00     0.066 H 
HETATM   13  H8  UNL     1      -2.189   0.797  -0.474  1.00  0.00     0.066 H 
TER      14      UNL     1 
ENDMDL
