REMARK FAKE_HEAD_ATOM=C5_O1
REMARK REAL_HEAD_ATOM=C4_C3
REMARK DUMMY_ATOM=C5_H10_H8_H9_O1
REMARK TORSION=H6_C4_C3_C2
REMARK TORSION=C4_C3_C2_C1
MODEL 0
HETATM    1  C1  UNL     1      -2.434   0.191   0.684  1.00  0.00    -0.125 C 
HETATM    2  C2  UNL     1      -1.704  -0.908   0.471  1.00  0.00    -0.110 C 
HETATM    3  C3  UNL     1      -0.405  -0.861  -0.285  1.00  0.00    -0.031 C 
HETATM    4  C4  UNL     1       0.693  -0.173   0.534  1.00  0.00     0.022 C 
HETATM    5  O1  UNL     1       1.931  -0.252  -0.148  1.00  0.00    -0.396 OA
HETATM    6  C5  UNL     1       2.165   0.929  -0.883  1.00  0.00     0.004 C 
HETATM    7  H1  UNL     1      -3.374   0.123   1.221  1.00  0.00     0.066 H 
HETATM    8  H2  UNL     1      -2.102   1.161   0.325  1.00  0.00     0.066 H 
HETATM    9  H3  UNL     1      -2.075  -1.866   0.824  1.00  0.00     0.075 H 
HETATM   10  H4  UNL     1      -0.556  -0.332  -1.251  1.00  0.00     0.042 H 
HETATM   11  H5  UNL     1      -0.087  -1.901  -0.512  1.00  0.00     0.042 H 
HETATM   12  H6  UNL     1       0.395   0.871   0.794  1.00  0.00     0.074 H 
HETATM   13  H7  UNL     1       0.804  -0.715   1.497  1.00  0.00     0.074 H 
HETATM   14  H8  UNL     1       1.336   1.140  -1.595  1.00  0.00     0.066 H 
HETATM   15  H9  UNL     1       2.319   1.794  -0.201  1.00  0.00     0.066 H 
HETATM   16  H10 UNL     1       3.093   0.799  -1.476  1.00  0.00     0.066 H 
TER      17      UNL     1 
ENDMDL
