REMARK FAKE_HEAD_ATOM=C5_O2
REMARK REAL_HEAD_ATOM=C4_C3
REMARK DUMMY_ATOM=C5_H10_H11_H9_O2
REMARK TORSION=H7_C4_C3_O1
REMARK TORSION=C4_C3_O1_C2
REMARK TORSION=C3_O1_C2_C1
MODEL 0
HETATM    1  C1  UNL     1      -2.095   1.205  -1.001  1.00  0.00    -0.052 C 
HETATM    2  C2  UNL     1      -1.516  -0.137  -0.555  1.00  0.00     0.031 C 
HETATM    3  O1  UNL     1      -0.481   0.110   0.383  1.00  0.00    -0.385 OA
HETATM    4  C3  UNL     1       0.575  -0.824   0.255  1.00  0.00     0.040 C 
HETATM    5  C4  UNL     1       1.643  -0.305  -0.713  1.00  0.00     0.039 C 
HETATM    6  O2  UNL     1       2.068   0.992  -0.335  1.00  0.00    -0.394 OA
HETATM    7  C5  UNL     1       3.249   0.919   0.433  1.00  0.00     0.004 C 
HETATM    8  C6  UNL     1      -2.607  -0.993   0.095  1.00  0.00    -0.052 C 
HETATM    9  H1  UNL     1      -1.300   1.815  -1.479  1.00  0.00     0.030 H 
HETATM   10  H2  UNL     1      -2.497   1.765  -0.129  1.00  0.00     0.030 H 
HETATM   11  H3  UNL     1      -2.910   1.049  -1.740  1.00  0.00     0.030 H 
HETATM   12  H4  UNL     1      -1.157  -0.654  -1.477  1.00  0.00     0.082 H 
HETATM   13  H5  UNL     1       0.230  -1.836  -0.061  1.00  0.00     0.077 H 
HETATM   14  H6  UNL     1       1.036  -0.959   1.255  1.00  0.00     0.077 H 
HETATM   15  H7  UNL     1       2.475  -1.045  -0.789  1.00  0.00     0.077 H 
HETATM   16  H8  UNL     1       1.202  -0.237  -1.729  1.00  0.00     0.077 H 
HETATM   17  H9  UNL     1       4.098   0.550  -0.183  1.00  0.00     0.066 H 
HETATM   18  H10 UNL     1       3.114   0.278   1.332  1.00  0.00     0.066 H 
HETATM   19  H11 UNL     1       3.507   1.940   0.784  1.00  0.00     0.066 H 
HETATM   20  H12 UNL     1      -2.191  -1.978   0.394  1.00  0.00     0.030 H 
HETATM   21  H13 UNL     1      -3.009  -0.488   1.000  1.00  0.00     0.030 H 
HETATM   22  H14 UNL     1      -3.437  -1.169  -0.621  1.00  0.00     0.030 H 
TER      23      UNL     1 
ENDMDL
