REMARK FAKE_HEAD_ATOM=C1_O1
REMARK REAL_HEAD_ATOM=C2_C3
REMARK DUMMY_ATOM=C1_H1_H2_H3_O1
REMARK TORSION=H4_C2_C3_O2
REMARK TORSION=C2_C3_O2_C4
REMARK TORSION=C3_O2_C4_C5
MODEL 0
HETATM    1  C1  UNL     1       2.589  -0.127   1.103  1.00  0.00     0.004 C 
HETATM    2  O1  UNL     1       1.622  -0.461   0.133  1.00  0.00    -0.394 OA
HETATM    3  C2  UNL     1       0.690   0.593   0.018  1.00  0.00     0.039 C 
HETATM    4  C3  UNL     1      -0.362   0.226  -1.027  1.00  0.00     0.044 C 
HETATM    5  O2  UNL     1      -1.043  -0.978  -0.667  1.00  0.00    -0.362 OA
HETATM    6  C4  UNL     1      -2.035  -1.096   0.321  1.00  0.00     0.003 C 
HETATM    7  C5  UNL     1      -2.548  -0.060   0.986  1.00  0.00    -0.101 C 
HETATM    8  H1  UNL     1       3.152   0.788   0.813  1.00  0.00     0.066 H 
HETATM    9  H2  UNL     1       2.125   0.003   2.106  1.00  0.00     0.066 H 
HETATM   10  H3  UNL     1       3.318  -0.959   1.176  1.00  0.00     0.066 H 
HETATM   11  H4  UNL     1       1.195   1.528  -0.318  1.00  0.00     0.077 H 
HETATM   12  H5  UNL     1       0.186   0.785   0.991  1.00  0.00     0.077 H 
HETATM   13  H6  UNL     1      -1.083   1.058  -1.173  1.00  0.00     0.078 H 
HETATM   14  H7  UNL     1       0.148   0.060  -1.999  1.00  0.00     0.078 H 
HETATM   15  H8  UNL     1      -2.410  -2.087   0.545  1.00  0.00     0.121 H 
HETATM   16  H9  UNL     1      -2.231   0.956   0.806  1.00  0.00     0.069 H 
HETATM   17  H10 UNL     1      -3.313  -0.230   1.733  1.00  0.00     0.069 H 
TER      18      UNL     1 
ENDMDL
