REMARK FAKE_HEAD_ATOM=C5_O1
REMARK REAL_HEAD_ATOM=C4_C3
REMARK DUMMY_ATOM=C5_H10_H8_H9_O1
REMARK TORSION=H6_C4_C3_C2
MODEL 0
HETATM    1  C1  UNL     1      -2.905   0.302   0.046  1.00  0.00    -0.060 C 
HETATM    2  C2  UNL     1      -1.464   0.045  -0.271  1.00  0.00    -0.108 C 
HETATM    3  C3  UNL     1      -0.491   0.739   0.335  1.00  0.00    -0.085 C 
HETATM    4  C4  UNL     1       0.954   0.492   0.017  1.00  0.00     0.034 C 
HETATM    5  O1  UNL     1       1.298  -0.822   0.402  1.00  0.00    -0.392 OA
HETATM    6  C5  UNL     1       2.650  -1.063   0.084  1.00  0.00     0.004 C 
HETATM    7  H1  UNL     1      -3.547  -0.373  -0.558  1.00  0.00     0.032 H 
HETATM    8  H2  UNL     1      -3.164   1.354  -0.195  1.00  0.00     0.032 H 
HETATM    9  H3  UNL     1      -3.096   0.110   1.123  1.00  0.00     0.032 H 
HETATM   10  H4  UNL     1      -1.215  -0.718  -1.004  1.00  0.00     0.075 H 
HETATM   11  H5  UNL     1      -0.744   1.506   1.062  1.00  0.00     0.079 H 
HETATM   12  H6  UNL     1       1.564   1.236   0.578  1.00  0.00     0.080 H 
HETATM   13  H7  UNL     1       1.106   0.644  -1.077  1.00  0.00     0.080 H 
HETATM   14  H8  UNL     1       2.909  -2.094   0.399  1.00  0.00     0.066 H 
HETATM   15  H9  UNL     1       3.323  -0.365   0.630  1.00  0.00     0.066 H 
HETATM   16  H10 UNL     1       2.823  -0.993  -1.013  1.00  0.00     0.066 H 
TER      17      UNL     1 
ENDMDL
