REMARK FAKE_HEAD_ATOM=C3_O1
REMARK REAL_HEAD_ATOM=C2_C4
REMARK DUMMY_ATOM=C3_H5_H6_H7_O1
REMARK TORSION=H4_C2_C4_C5
REMARK TORSION=C2_C4_C5_C6
REMARK TORSION=C4_C5_C6_C7
REMARK TORSION=C5_C6_C7_C8
REMARK TORSION=C6_C7_C8_C9
MODEL 0
HETATM    1  C1  UNL     1      -2.492   1.399  -0.426  1.00  0.00    -0.052 C 
HETATM    2  C2  UNL     1      -2.410   0.036   0.275  1.00  0.00     0.034 C 
HETATM    3  O1  UNL     1      -3.620  -0.669   0.046  1.00  0.00    -0.391 OA
HETATM    4  C3  UNL     1      -4.475  -0.576   1.164  1.00  0.00     0.004 C 
HETATM    5  C4  UNL     1      -1.252  -0.816  -0.280  1.00  0.00    -0.041 C 
HETATM    6  C5  UNL     1       0.134  -0.267   0.094  1.00  0.00    -0.063 C 
HETATM    7  C6  UNL     1       1.245  -1.221  -0.370  1.00  0.00    -0.065 C 
HETATM    8  C7  UNL     1       2.642  -0.769   0.084  1.00  0.00    -0.065 C 
HETATM    9  C8  UNL     1       3.137   0.474  -0.670  1.00  0.00    -0.069 C 
HETATM   10  C9  UNL     1       4.577   0.808  -0.292  1.00  0.00    -0.077 C 
HETATM   11  H1  UNL     1      -3.394   1.947  -0.082  1.00  0.00     0.030 H 
HETATM   12  H2  UNL     1      -2.558   1.269  -1.527  1.00  0.00     0.030 H 
HETATM   13  H3  UNL     1      -1.608   2.023  -0.181  1.00  0.00     0.030 H 
HETATM   14  H4  UNL     1      -2.207   0.211   1.361  1.00  0.00     0.082 H 
HETATM   15  H5  UNL     1      -4.690   0.485   1.425  1.00  0.00     0.066 H 
HETATM   16  H6  UNL     1      -4.041  -1.110   2.037  1.00  0.00     0.066 H 
HETATM   17  H7  UNL     1      -5.440  -1.064   0.915  1.00  0.00     0.066 H 
HETATM   18  H8  UNL     1      -1.351  -1.842   0.139  1.00  0.00     0.036 H 
HETATM   19  H9  UNL     1      -1.338  -0.897  -1.386  1.00  0.00     0.036 H 
HETATM   20  H10 UNL     1       0.196  -0.138   1.196  1.00  0.00     0.033 H 
HETATM   21  H11 UNL     1       0.278   0.720  -0.391  1.00  0.00     0.033 H 
HETATM   22  H12 UNL     1       1.222  -1.320  -1.478  1.00  0.00     0.033 H 
HETATM   23  H13 UNL     1       1.056  -2.229   0.061  1.00  0.00     0.033 H 
HETATM   24  H14 UNL     1       3.350  -1.607  -0.103  1.00  0.00     0.033 H 
HETATM   25  H15 UNL     1       2.638  -0.572   1.179  1.00  0.00     0.033 H 
HETATM   26  H16 UNL     1       2.499   1.349  -0.424  1.00  0.00     0.032 H 
HETATM   27  H17 UNL     1       3.087   0.295  -1.766  1.00  0.00     0.032 H 
HETATM   28  H18 UNL     1       4.905   1.715  -0.843  1.00  0.00     0.027 H 
HETATM   29  H19 UNL     1       5.252  -0.032  -0.559  1.00  0.00     0.027 H 
HETATM   30  H20 UNL     1       4.653   1.008   0.798  1.00  0.00     0.027 H 
TER      31      UNL     1 
ENDMDL
