REMARK FAKE_HEAD_ATOM=C5_O1
REMARK REAL_HEAD_ATOM=C4_C3
REMARK DUMMY_ATOM=C5_H6_H7_H8_O1
REMARK TORSION=H4_C4_C3_C2
MODEL 0
HETATM    1  C1  UNL     1      -2.872   0.108   0.515  1.00  0.00    -0.011 C 
HETATM    2  C2  UNL     1      -1.866  -0.035  -0.299  1.00  0.00    -0.174 C 
HETATM    3  C3  UNL     1      -0.855  -0.178  -1.114  1.00  0.00     0.029 C 
HETATM    4  C4  UNL     1       0.522  -0.432  -0.590  1.00  0.00     0.032 C 
HETATM    5  O1  UNL     1       0.943   0.678   0.174  1.00  0.00    -0.395 OA
HETATM    6  C5  UNL     1       2.234   0.431   0.684  1.00  0.00     0.004 C 
HETATM    7  H1  UNL     1      -3.882   0.118   0.129  1.00  0.00     0.051 H 
HETATM    8  H2  UNL     1      -2.698   0.216   1.576  1.00  0.00     0.051 H 
HETATM    9  H3  UNL     1      -1.027  -0.139  -2.182  1.00  0.00     0.063 H 
HETATM   10  H4  UNL     1       1.199  -0.587  -1.460  1.00  0.00     0.076 H 
HETATM   11  H5  UNL     1       0.500  -1.360   0.027  1.00  0.00     0.076 H 
HETATM   12  H6  UNL     1       2.555   1.313   1.275  1.00  0.00     0.066 H 
HETATM   13  H7  UNL     1       2.236  -0.449   1.365  1.00  0.00     0.066 H 
HETATM   14  H8  UNL     1       2.972   0.289  -0.137  1.00  0.00     0.066 H 
TER      15      UNL     1 
ENDMDL
