REMARK FAKE_HEAD_ATOM=C1_O1
REMARK REAL_HEAD_ATOM=C2_C3
REMARK DUMMY_ATOM=C1_H1_H2_H3_O1
MODEL 0
HETATM    1  C1  UNL     1       1.983  -0.117  -0.405  1.00  0.00     0.005 C 
HETATM    2  O1  UNL     1       0.732   0.388  -0.812  1.00  0.00    -0.386 OA
HETATM    3  C2  UNL     1      -0.170   0.312   0.272  1.00  0.00     0.079 A 
HETATM    4  C3  UNL     1      -0.970  -0.971   0.278  1.00  0.00     0.045 A 
HETATM    5  O2  UNL     1      -2.168  -0.307  -0.047  1.00  0.00    -0.386 OA
HETATM    6  C4  UNL     1      -1.501   0.933  -0.075  1.00  0.00     0.045 A 
HETATM    7  H1  UNL     1       1.901  -1.166  -0.043  1.00  0.00     0.066 H 
HETATM    8  H2  UNL     1       2.666  -0.116  -1.279  1.00  0.00     0.066 H 
HETATM    9  H3  UNL     1       2.437   0.530   0.378  1.00  0.00     0.066 H 
HETATM   10  H4  UNL     1       0.217   0.641   1.265  1.00  0.00     0.089 H 
HETATM   11  H5  UNL     1      -1.029  -1.433   1.287  1.00  0.00     0.078 H 
HETATM   12  H6  UNL     1      -0.679  -1.686  -0.524  1.00  0.00     0.078 H 
HETATM   13  H7  UNL     1      -1.537   1.384  -1.092  1.00  0.00     0.078 H 
HETATM   14  H8  UNL     1      -1.882   1.609   0.722  1.00  0.00     0.078 H 
TER      15      UNL     1 
ENDMDL
