REMARK FAKE_HEAD_ATOM=C4_O3
REMARK REAL_HEAD_ATOM=C2_C1
REMARK DUMMY_ATOM=C4_H10_H8_H9_O3
REMARK TORSION=H4_C2_C3_O2
REMARK TORSION=C2_C3_O2_H7
REMARK TORSION=H4_C2_C1_O1
REMARK TORSION=C2_C1_O1_H1
MODEL 0
HETATM    1  O1  UNL     1      -0.075   2.469   0.093  1.00  0.00    -0.398 OA
HETATM    2  C1  UNL     1      -0.379   1.234   0.683  1.00  0.00     0.043 C 
HETATM    3  C2  UNL     1       0.072   0.066  -0.214  1.00  0.00     0.078 C 
HETATM    4  C3  UNL     1       1.591   0.100  -0.457  1.00  0.00     0.043 C 
HETATM    5  O2  UNL     1       2.302   0.008   0.749  1.00  0.00    -0.398 OA
HETATM    6  O3  UNL     1      -0.260  -1.164   0.410  1.00  0.00    -0.386 OA
HETATM    7  C4  UNL     1      -1.463  -1.683  -0.114  1.00  0.00     0.005 C 
HETATM    8  H1  UNL     1      -0.732   2.603  -0.639  1.00  0.00     0.209 HD
HETATM    9  H2  UNL     1       0.130   1.173   1.669  1.00  0.00     0.078 H 
HETATM   10  H3  UNL     1      -1.473   1.166   0.874  1.00  0.00     0.078 H 
HETATM   11  H4  UNL     1      -0.408   0.189  -1.216  1.00  0.00     0.089 H 
HETATM   12  H5  UNL     1       1.870   1.047  -0.965  1.00  0.00     0.078 H 
HETATM   13  H6  UNL     1       1.878  -0.732  -1.140  1.00  0.00     0.078 H 
HETATM   14  H7  UNL     1       2.317  -0.951   1.001  1.00  0.00     0.209 HD
HETATM   15  H8  UNL     1      -1.736  -2.593   0.458  1.00  0.00     0.066 H 
HETATM   16  H9  UNL     1      -2.299  -0.956  -0.012  1.00  0.00     0.066 H 
HETATM   17  H10 UNL     1      -1.333  -1.978  -1.179  1.00  0.00     0.066 H 
TER      18      UNL     1 
ENDMDL
