REMARK FAKE_HEAD_ATOM=C6_O2
REMARK REAL_HEAD_ATOM=C4_C3
REMARK DUMMY_ATOM=C6_H12_H13_H14_O2
REMARK TORSION=H8_C4_C3_C2
REMARK TORSION=C4_C3_C2_C1
REMARK TORSION=H8_C4_C5_O1
REMARK TORSION=C4_C5_O1_H11
MODEL 0
HETATM    1  C1  UNL     1       2.392  -0.941   0.126  1.00  0.00    -0.076 C 
HETATM    2  C2  UNL     1       1.421  -0.579   1.249  1.00  0.00    -0.066 C 
HETATM    3  C3  UNL     1       0.587   0.676   0.935  1.00  0.00    -0.039 C 
HETATM    4  C4  UNL     1      -0.477   0.445  -0.156  1.00  0.00     0.058 C 
HETATM    5  C5  UNL     1      -1.234   1.752  -0.426  1.00  0.00     0.041 C 
HETATM    6  O1  UNL     1      -2.161   1.559  -1.458  1.00  0.00    -0.398 OA
HETATM    7  O2  UNL     1      -1.401  -0.534   0.296  1.00  0.00    -0.389 OA
HETATM    8  C6  UNL     1      -1.541  -1.569  -0.652  1.00  0.00     0.005 C 
HETATM    9  H1  UNL     1       3.042  -1.778   0.457  1.00  0.00     0.027 H 
HETATM   10  H2  UNL     1       3.037  -0.073  -0.126  1.00  0.00     0.027 H 
HETATM   11  H3  UNL     1       1.844  -1.269  -0.781  1.00  0.00     0.027 H 
HETATM   12  H4  UNL     1       2.014  -0.381   2.168  1.00  0.00     0.032 H 
HETATM   13  H5  UNL     1       0.757  -1.444   1.463  1.00  0.00     0.032 H 
HETATM   14  H6  UNL     1       1.270   1.501   0.631  1.00  0.00     0.036 H 
HETATM   15  H7  UNL     1       0.079   0.996   1.871  1.00  0.00     0.036 H 
HETATM   16  H8  UNL     1       0.052   0.173  -1.101  1.00  0.00     0.086 H 
HETATM   17  H9  UNL     1      -0.513   2.546  -0.724  1.00  0.00     0.077 H 
HETATM   18  H10 UNL     1      -1.764   2.077   0.497  1.00  0.00     0.077 H 
HETATM   19  H11 UNL     1      -2.621   2.430  -1.581  1.00  0.00     0.209 HD
HETATM   20  H12 UNL     1      -2.296  -2.291  -0.279  1.00  0.00     0.066 H 
HETATM   21  H13 UNL     1      -1.901  -1.175  -1.628  1.00  0.00     0.066 H 
HETATM   22  H14 UNL     1      -0.583  -2.119  -0.783  1.00  0.00     0.066 H 
TER      23      UNL     1 
ENDMDL
