REMARK FAKE_HEAD_ATOM=C4_O1
REMARK REAL_HEAD_ATOM=C3_C2
REMARK DUMMY_ATOM=C4_H4_H5_H6_O1
REMARK TORSION=H2_C3_C2_C1
MODEL 0
HETATM    1  C1  UNL     1       2.358   0.773   0.542  1.00  0.00    -0.152 C 
HETATM    2  C2  UNL     1       1.431   0.065   0.237  1.00  0.00    -0.091 C 
HETATM    3  C3  UNL     1       0.302  -0.796  -0.135  1.00  0.00     0.072 C 
HETATM    4  O1  UNL     1      -0.654  -0.825   0.906  1.00  0.00    -0.384 OA
HETATM    5  C4  UNL     1      -1.594   0.214   0.736  1.00  0.00     0.005 C 
HETATM    6  H1  UNL     1       3.172   1.394   0.810  1.00  0.00     0.166 H 
HETATM    7  H2  UNL     1      -0.118  -0.471  -1.115  1.00  0.00     0.093 H 
HETATM    8  H3  UNL     1       0.690  -1.825  -0.278  1.00  0.00     0.093 H 
HETATM    9  H4  UNL     1      -1.098   1.209   0.687  1.00  0.00     0.066 H 
HETATM   10  H5  UNL     1      -2.277   0.221   1.611  1.00  0.00     0.066 H 
HETATM   11  H6  UNL     1      -2.212   0.043  -0.173  1.00  0.00     0.066 H 
TER      12      UNL     1 
ENDMDL
