REMARK FAKE_HEAD_ATOM=C4_O2
REMARK REAL_HEAD_ATOM=C2_C1
REMARK DUMMY_ATOM=C4_H10_H8_H9_O2
REMARK TORSION=C1_C2_C3_O1
REMARK TORSION=C2_C3_O1_H7
MODEL 0
HETATM    1  C1  UNL     1       0.405   1.393  -0.556  1.00  0.00    -0.050 C 
HETATM    2  C2  UNL     1       0.078  -0.040  -0.122  1.00  0.00     0.054 C 
HETATM    3  C3  UNL     1       1.229  -0.633   0.698  1.00  0.00     0.040 C 
HETATM    4  O1  UNL     1       2.379  -0.753  -0.095  1.00  0.00    -0.398 OA
HETATM    5  O2  UNL     1      -1.087  -0.030   0.688  1.00  0.00    -0.389 OA
HETATM    6  C4  UNL     1      -2.226  -0.373  -0.070  1.00  0.00     0.005 C 
HETATM    7  H1  UNL     1      -0.431   1.809  -1.157  1.00  0.00     0.031 H 
HETATM    8  H2  UNL     1       0.561   2.042   0.332  1.00  0.00     0.031 H 
HETATM    9  H3  UNL     1       1.322   1.411  -1.184  1.00  0.00     0.031 H 
HETATM   10  H4  UNL     1      -0.030  -0.673  -1.038  1.00  0.00     0.086 H 
HETATM   11  H5  UNL     1       1.440   0.014   1.580  1.00  0.00     0.077 H 
HETATM   12  H6  UNL     1       0.929  -1.640   1.065  1.00  0.00     0.077 H 
HETATM   13  H7  UNL     1       3.081  -1.133   0.495  1.00  0.00     0.209 HD
HETATM   14  H8  UNL     1      -2.355   0.306  -0.943  1.00  0.00     0.066 H 
HETATM   15  H9  UNL     1      -2.171  -1.431  -0.407  1.00  0.00     0.066 H 
HETATM   16  H10 UNL     1      -3.124  -0.270   0.573  1.00  0.00     0.066 H 
TER      17      UNL     1 
ENDMDL
