REMARK FAKE_HEAD_ATOM=C28_O1
REMARK REAL_HEAD_ATOM=C27_C26
REMARK DUMMY_ATOM=C28_H56_H57_H58_O1
REMARK TORSION=H54_C27_C26_C25
REMARK TORSION=C27_C26_C25_C24
REMARK TORSION=C26_C25_C24_C23
REMARK TORSION=C25_C24_C23_C22
REMARK TORSION=C24_C23_C22_C21
REMARK TORSION=C23_C22_C21_C20
REMARK TORSION=C22_C21_C20_C19
REMARK TORSION=C21_C20_C19_C18
REMARK TORSION=C20_C19_C18_C17
REMARK TORSION=C19_C18_C17_C16
REMARK TORSION=C18_C17_C16_C15
REMARK TORSION=C17_C16_C15_C14
REMARK TORSION=C16_C15_C14_C13
REMARK TORSION=C15_C14_C13_C12
REMARK TORSION=C14_C13_C12_C11
REMARK TORSION=C13_C12_C11_C10
REMARK TORSION=C12_C11_C10_C9
REMARK TORSION=C11_C10_C9_C8
REMARK TORSION=C10_C9_C8_C7
REMARK TORSION=C9_C8_C7_C6
REMARK TORSION=C8_C7_C6_C5
REMARK TORSION=C7_C6_C5_C4
REMARK TORSION=C6_C5_C4_C3
REMARK TORSION=C5_C4_C3_C2
REMARK TORSION=C4_C3_C2_C1
MODEL 0
HETATM    1  C1  UNL     1     -12.594   1.352   3.603  1.00  0.00    -0.077 C 
HETATM    2  C2  UNL     1     -11.487   0.580   2.892  1.00  0.00    -0.069 C 
HETATM    3  C3  UNL     1     -11.110   1.253   1.563  1.00  0.00    -0.065 C 
HETATM    4  C4  UNL     1     -10.093   0.433   0.753  1.00  0.00    -0.065 C 
HETATM    5  C5  UNL     1      -8.693   0.434   1.384  1.00  0.00    -0.065 C 
HETATM    6  C6  UNL     1      -7.679  -0.269   0.469  1.00  0.00    -0.065 C 
HETATM    7  C7  UNL     1      -6.297  -0.423   1.122  1.00  0.00    -0.065 C 
HETATM    8  C8  UNL     1      -5.573   0.923   1.305  1.00  0.00    -0.065 C 
HETATM    9  C9  UNL     1      -4.105   0.738   1.745  1.00  0.00    -0.065 C 
HETATM   10  C10 UNL     1      -3.089   0.953   0.610  1.00  0.00    -0.065 C 
HETATM   11  C11 UNL     1      -3.179  -0.124  -0.483  1.00  0.00    -0.065 C 
HETATM   12  C12 UNL     1      -2.091   0.035  -1.558  1.00  0.00    -0.065 C 
HETATM   13  C13 UNL     1      -0.728  -0.513  -1.100  1.00  0.00    -0.065 C 
HETATM   14  C14 UNL     1       0.380  -0.288  -2.142  1.00  0.00    -0.065 C 
HETATM   15  C15 UNL     1       0.208  -1.165  -3.395  1.00  0.00    -0.065 C 
HETATM   16  C16 UNL     1       1.426  -1.077  -4.339  1.00  0.00    -0.065 C 
HETATM   17  C17 UNL     1       2.340  -2.317  -4.289  1.00  0.00    -0.065 C 
HETATM   18  C18 UNL     1       3.045  -2.544  -2.941  1.00  0.00    -0.065 C 
HETATM   19  C19 UNL     1       4.101  -1.471  -2.634  1.00  0.00    -0.065 C 
HETATM   20  C20 UNL     1       4.834  -1.787  -1.322  1.00  0.00    -0.065 C 
HETATM   21  C21 UNL     1       5.793  -0.665  -0.892  1.00  0.00    -0.065 C 
HETATM   22  C22 UNL     1       7.058  -0.601  -1.766  1.00  0.00    -0.065 C 
HETATM   23  C23 UNL     1       8.017   0.521  -1.336  1.00  0.00    -0.065 C 
HETATM   24  C24 UNL     1       8.770   0.193  -0.037  1.00  0.00    -0.065 C 
HETATM   25  C25 UNL     1       9.794   1.289   0.294  1.00  0.00    -0.063 C 
HETATM   26  C26 UNL     1      10.673   0.937   1.507  1.00  0.00    -0.045 C 
HETATM   27  C27 UNL     1       9.908   0.911   2.834  1.00  0.00     0.019 C 
HETATM   28  O1  UNL     1       9.302   2.166   3.064  1.00  0.00    -0.396 OA
HETATM   29  C28 UNL     1       8.560   2.115   4.261  1.00  0.00     0.004 C 
HETATM   30  H1  UNL     1     -12.839   0.851   4.563  1.00  0.00     0.027 H 
HETATM   31  H2  UNL     1     -13.510   1.382   2.975  1.00  0.00     0.027 H 
HETATM   32  H3  UNL     1     -12.263   2.391   3.819  1.00  0.00     0.027 H 
HETATM   33  H4  UNL     1     -11.837  -0.458   2.703  1.00  0.00     0.032 H 
HETATM   34  H5  UNL     1     -10.603   0.539   3.563  1.00  0.00     0.032 H 
HETATM   35  H6  UNL     1     -10.706   2.271   1.755  1.00  0.00     0.033 H 
HETATM   36  H7  UNL     1     -12.028   1.366   0.946  1.00  0.00     0.033 H 
HETATM   37  H8  UNL     1     -10.458  -0.612   0.640  1.00  0.00     0.033 H 
HETATM   38  H9  UNL     1     -10.028   0.878  -0.264  1.00  0.00     0.033 H 
HETATM   39  H10 UNL     1      -8.374   1.485   1.554  1.00  0.00     0.033 H 
HETATM   40  H11 UNL     1      -8.724  -0.093   2.361  1.00  0.00     0.033 H 
HETATM   41  H12 UNL     1      -7.581   0.290  -0.488  1.00  0.00     0.033 H 
HETATM   42  H13 UNL     1      -8.059  -1.286   0.227  1.00  0.00     0.033 H 
HETATM   43  H14 UNL     1      -6.402  -0.927   2.108  1.00  0.00     0.033 H 
HETATM   44  H15 UNL     1      -5.689  -1.090   0.477  1.00  0.00     0.033 H 
HETATM   45  H16 UNL     1      -5.630   1.521   0.369  1.00  0.00     0.033 H 
HETATM   46  H17 UNL     1      -6.101   1.501   2.094  1.00  0.00     0.033 H 
HETATM   47  H18 UNL     1      -3.946  -0.259   2.212  1.00  0.00     0.033 H 
HETATM   48  H19 UNL     1      -3.882   1.491   2.533  1.00  0.00     0.033 H 
HETATM   49  H20 UNL     1      -2.076   0.941   1.063  1.00  0.00     0.033 H 
HETATM   50  H21 UNL     1      -3.241   1.959   0.160  1.00  0.00     0.033 H 
HETATM   51  H22 UNL     1      -3.120  -1.138  -0.031  1.00  0.00     0.033 H 
HETATM   52  H23 UNL     1      -4.164  -0.033  -0.989  1.00  0.00     0.033 H 
HETATM   53  H24 UNL     1      -1.998   1.105  -1.848  1.00  0.00     0.033 H 
HETATM   54  H25 UNL     1      -2.422  -0.530  -2.456  1.00  0.00     0.033 H 
HETATM   55  H26 UNL     1      -0.813  -1.599  -0.873  1.00  0.00     0.033 H 
HETATM   56  H27 UNL     1      -0.417  -0.001  -0.166  1.00  0.00     0.033 H 
HETATM   57  H28 UNL     1       1.350  -0.520  -1.656  1.00  0.00     0.033 H 
HETATM   58  H29 UNL     1       0.407   0.785  -2.435  1.00  0.00     0.033 H 
HETATM   59  H30 UNL     1      -0.686  -0.810  -3.952  1.00  0.00     0.033 H 
HETATM   60  H31 UNL     1       0.013  -2.219  -3.102  1.00  0.00     0.033 H 
HETATM   61  H32 UNL     1       2.012  -0.150  -4.165  1.00  0.00     0.033 H 
HETATM   62  H33 UNL     1       1.046  -0.999  -5.382  1.00  0.00     0.033 H 
HETATM   63  H34 UNL     1       3.107  -2.228  -5.089  1.00  0.00     0.033 H 
HETATM   64  H35 UNL     1       1.733  -3.218  -4.528  1.00  0.00     0.033 H 
HETATM   65  H36 UNL     1       3.551  -3.533  -2.987  1.00  0.00     0.033 H 
HETATM   66  H37 UNL     1       2.298  -2.602  -2.122  1.00  0.00     0.033 H 
HETATM   67  H38 UNL     1       3.615  -0.477  -2.546  1.00  0.00     0.033 H 
HETATM   68  H39 UNL     1       4.829  -1.437  -3.472  1.00  0.00     0.033 H 
HETATM   69  H40 UNL     1       5.392  -2.744  -1.419  1.00  0.00     0.033 H 
HETATM   70  H41 UNL     1       4.079  -1.918  -0.515  1.00  0.00     0.033 H 
HETATM   71  H42 UNL     1       5.264   0.313  -0.915  1.00  0.00     0.033 H 
HETATM   72  H43 UNL     1       6.086  -0.864   0.160  1.00  0.00     0.033 H 
HETATM   73  H44 UNL     1       6.763  -0.402  -2.818  1.00  0.00     0.033 H 
HETATM   74  H45 UNL     1       7.586  -1.579  -1.744  1.00  0.00     0.033 H 
HETATM   75  H46 UNL     1       8.759   0.666  -2.152  1.00  0.00     0.033 H 
HETATM   76  H47 UNL     1       7.456   1.474  -1.220  1.00  0.00     0.033 H 
HETATM   77  H48 UNL     1       9.294  -0.781  -0.150  1.00  0.00     0.033 H 
HETATM   78  H49 UNL     1       8.042   0.114   0.796  1.00  0.00     0.033 H 
HETATM   79  H50 UNL     1       9.271   2.254   0.469  1.00  0.00     0.033 H 
HETATM   80  H51 UNL     1      10.466   1.430  -0.581  1.00  0.00     0.033 H 
HETATM   81  H52 UNL     1      11.156  -0.051   1.343  1.00  0.00     0.036 H 
HETATM   82  H53 UNL     1      11.484   1.693   1.584  1.00  0.00     0.036 H 
HETATM   83  H54 UNL     1      10.640   0.685   3.642  1.00  0.00     0.074 H 
HETATM   84  H55 UNL     1       9.153   0.093   2.809  1.00  0.00     0.074 H 
HETATM   85  H56 UNL     1       9.211   1.878   5.132  1.00  0.00     0.066 H 
HETATM   86  H57 UNL     1       7.728   1.380   4.187  1.00  0.00     0.066 H 
HETATM   87  H58 UNL     1       8.110   3.113   4.441  1.00  0.00     0.066 H 
TER      88      UNL     1 
ENDMDL
