REMARK FAKE_HEAD_ATOM=C5_O1
REMARK REAL_HEAD_ATOM=C4_C3
REMARK DUMMY_ATOM=C5_H10_H8_H9_O1
REMARK TORSION=H7_C4_C3_C2
REMARK TORSION=C4_C3_C2_C1
MODEL 0
HETATM    1  C1  UNL     1       2.639  -0.992   0.733  1.00  0.00    -0.073 C 
HETATM    2  C2  UNL     1       1.465  -0.525  -0.137  1.00  0.00    -0.059 C 
HETATM    3  C3  UNL     1       0.218  -0.289   0.752  1.00  0.00    -0.039 C 
HETATM    4  C4  UNL     1      -1.071   0.111   0.001  1.00  0.00     0.035 C 
HETATM    5  O1  UNL     1      -2.097   0.283   0.967  1.00  0.00    -0.391 OA
HETATM    6  C5  UNL     1      -2.887   1.414   0.669  1.00  0.00     0.004 C 
HETATM    7  C6  UNL     1      -1.508  -0.971  -0.995  1.00  0.00    -0.052 C 
HETATM    8  C7  UNL     1       1.868   0.733  -0.922  1.00  0.00    -0.073 C 
HETATM    9  H1  UNL     1       3.525  -1.213   0.100  1.00  0.00     0.028 H 
HETATM   10  H2  UNL     1       2.369  -1.922   1.278  1.00  0.00     0.028 H 
HETATM   11  H3  UNL     1       2.914  -0.210   1.474  1.00  0.00     0.028 H 
HETATM   12  H4  UNL     1       1.255  -1.341  -0.862  1.00  0.00     0.039 H 
HETATM   13  H5  UNL     1       0.450   0.509   1.491  1.00  0.00     0.037 H 
HETATM   14  H6  UNL     1       0.010  -1.215   1.333  1.00  0.00     0.037 H 
HETATM   15  H7  UNL     1      -0.859   1.048  -0.567  1.00  0.00     0.082 H 
HETATM   16  H8  UNL     1      -3.726   1.461   1.393  1.00  0.00     0.066 H 
HETATM   17  H9  UNL     1      -3.323   1.348  -0.352  1.00  0.00     0.066 H 
HETATM   18  H10 UNL     1      -2.292   2.348   0.778  1.00  0.00     0.066 H 
HETATM   19  H11 UNL     1      -1.569  -1.961  -0.495  1.00  0.00     0.030 H 
HETATM   20  H12 UNL     1      -2.508  -0.725  -1.409  1.00  0.00     0.030 H 
HETATM   21  H13 UNL     1      -0.801  -1.030  -1.847  1.00  0.00     0.030 H 
HETATM   22  H14 UNL     1       1.113   0.968  -1.700  1.00  0.00     0.028 H 
HETATM   23  H15 UNL     1       2.834   0.568  -1.445  1.00  0.00     0.028 H 
HETATM   24  H16 UNL     1       1.977   1.603  -0.240  1.00  0.00     0.028 H 
TER      25      UNL     1 
ENDMDL
