REMARK FAKE_HEAD_ATOM=C1_O1
REMARK REAL_HEAD_ATOM=C2_C3
REMARK DUMMY_ATOM=C1_H1_H2_H3_O1
REMARK TORSION=H4_C2_C3_C4
MODEL 0
HETATM    1  C1  UNL     1       3.015  -0.381   0.195  1.00  0.00     0.004 C 
HETATM    2  O1  UNL     1       1.817   0.281   0.531  1.00  0.00    -0.396 OA
HETATM    3  C2  UNL     1       0.832  -0.013  -0.436  1.00  0.00     0.022 C 
HETATM    4  C3  UNL     1      -0.468   0.711  -0.064  1.00  0.00    -0.034 A 
HETATM    5  C4  UNL     1      -1.657   0.326  -0.942  1.00  0.00    -0.060 A 
HETATM    6  C5  UNL     1      -2.363  -0.261   0.273  1.00  0.00    -0.064 A 
HETATM    7  C6  UNL     1      -1.179   0.119   1.152  1.00  0.00    -0.060 A 
HETATM    8  H1  UNL     1       3.402  -0.041  -0.791  1.00  0.00     0.066 H 
HETATM    9  H2  UNL     1       3.781  -0.134   0.959  1.00  0.00     0.066 H 
HETATM   10  H3  UNL     1       2.880  -1.486   0.200  1.00  0.00     0.066 H 
HETATM   11  H4  UNL     1       0.646  -1.112  -0.491  1.00  0.00     0.074 H 
HETATM   12  H5  UNL     1       1.150   0.352  -1.440  1.00  0.00     0.074 H 
HETATM   13  H6  UNL     1      -0.340   1.814   0.013  1.00  0.00     0.043 H 
HETATM   14  H7  UNL     1      -2.186   1.214  -1.350  1.00  0.00     0.033 H 
HETATM   15  H8  UNL     1      -1.427  -0.446  -1.711  1.00  0.00     0.033 H 
HETATM   16  H9  UNL     1      -2.500  -1.362   0.196  1.00  0.00     0.033 H 
HETATM   17  H10 UNL     1      -3.288   0.295   0.539  1.00  0.00     0.033 H 
HETATM   18  H11 UNL     1      -1.443   0.894   1.905  1.00  0.00     0.033 H 
HETATM   19  H12 UNL     1      -0.674  -0.771   1.589  1.00  0.00     0.033 H 
TER      20      UNL     1 
ENDMDL
