REMARK FAKE_HEAD_ATOM=C22_O1
REMARK REAL_HEAD_ATOM=C21_C20
REMARK DUMMY_ATOM=C22_H44_H45_H46_O1
REMARK TORSION=H42_C21_C20_C19
REMARK TORSION=C21_C20_C19_C18
REMARK TORSION=C20_C19_C18_C17
REMARK TORSION=C19_C18_C17_C16
REMARK TORSION=C18_C17_C16_C15
REMARK TORSION=C17_C16_C15_C14
REMARK TORSION=C16_C15_C14_C13
REMARK TORSION=C15_C14_C13_C12
REMARK TORSION=C14_C13_C12_C11
REMARK TORSION=C13_C12_C11_C10
REMARK TORSION=C12_C11_C10_C9
REMARK TORSION=C11_C10_C9_C8
REMARK TORSION=C10_C9_C8_C7
REMARK TORSION=C9_C8_C7_C6
REMARK TORSION=C8_C7_C6_C5
REMARK TORSION=C7_C6_C5_C4
REMARK TORSION=C6_C5_C4_C3
REMARK TORSION=C5_C4_C3_C2
REMARK TORSION=C4_C3_C2_C1
MODEL 0
HETATM    1  C1  UNL     1      -7.374   0.376   2.748  1.00  0.00    -0.077 C 
HETATM    2  C2  UNL     1      -7.373   0.343   1.222  1.00  0.00    -0.069 C 
HETATM    3  C3  UNL     1      -7.646  -1.075   0.698  1.00  0.00    -0.065 C 
HETATM    4  C4  UNL     1      -7.629  -1.142  -0.844  1.00  0.00    -0.065 C 
HETATM    5  C5  UNL     1      -6.345  -1.767  -1.425  1.00  0.00    -0.065 C 
HETATM    6  C6  UNL     1      -5.051  -0.989  -1.131  1.00  0.00    -0.065 C 
HETATM    7  C7  UNL     1      -4.992   0.365  -1.859  1.00  0.00    -0.065 C 
HETATM    8  C8  UNL     1      -3.728   1.167  -1.507  1.00  0.00    -0.065 C 
HETATM    9  C9  UNL     1      -2.447   0.538  -2.082  1.00  0.00    -0.065 C 
HETATM   10  C10 UNL     1      -1.231   1.473  -1.984  1.00  0.00    -0.065 C 
HETATM   11  C11 UNL     1      -0.726   1.633  -0.540  1.00  0.00    -0.065 C 
HETATM   12  C12 UNL     1       0.461   2.607  -0.427  1.00  0.00    -0.065 C 
HETATM   13  C13 UNL     1       1.739   2.171  -1.172  1.00  0.00    -0.065 C 
HETATM   14  C14 UNL     1       2.288   0.786  -0.776  1.00  0.00    -0.065 C 
HETATM   15  C15 UNL     1       2.590   0.607   0.726  1.00  0.00    -0.065 C 
HETATM   16  C16 UNL     1       3.609   1.605   1.307  1.00  0.00    -0.065 C 
HETATM   17  C17 UNL     1       5.026   1.503   0.711  1.00  0.00    -0.065 C 
HETATM   18  C18 UNL     1       5.762   0.198   1.084  1.00  0.00    -0.065 C 
HETATM   19  C19 UNL     1       5.804  -0.804  -0.082  1.00  0.00    -0.063 C 
HETATM   20  C20 UNL     1       6.354  -2.181   0.328  1.00  0.00    -0.045 C 
HETATM   21  C21 UNL     1       7.847  -2.167   0.675  1.00  0.00     0.019 C 
HETATM   22  O1  UNL     1       8.031  -1.662   1.981  1.00  0.00    -0.396 OA
HETATM   23  C22 UNL     1       9.410  -1.593   2.266  1.00  0.00     0.004 C 
HETATM   24  H1  UNL     1      -8.358   0.044   3.141  1.00  0.00     0.027 H 
HETATM   25  H2  UNL     1      -7.183   1.413   3.097  1.00  0.00     0.027 H 
HETATM   26  H3  UNL     1      -6.576  -0.285   3.147  1.00  0.00     0.027 H 
HETATM   27  H4  UNL     1      -6.391   0.710   0.861  1.00  0.00     0.032 H 
HETATM   28  H5  UNL     1      -8.160   1.035   0.849  1.00  0.00     0.032 H 
HETATM   29  H6  UNL     1      -8.654  -1.386   1.054  1.00  0.00     0.033 H 
HETATM   30  H7  UNL     1      -6.914  -1.791   1.132  1.00  0.00     0.033 H 
HETATM   31  H8  UNL     1      -8.475  -1.787  -1.167  1.00  0.00     0.033 H 
HETATM   32  H9  UNL     1      -7.823  -0.147  -1.298  1.00  0.00     0.033 H 
HETATM   33  H10 UNL     1      -6.238  -2.797  -1.020  1.00  0.00     0.033 H 
HETATM   34  H11 UNL     1      -6.465  -1.867  -2.526  1.00  0.00     0.033 H 
HETATM   35  H12 UNL     1      -4.205  -1.619  -1.479  1.00  0.00     0.033 H 
HETATM   36  H13 UNL     1      -4.924  -0.852  -0.038  1.00  0.00     0.033 H 
HETATM   37  H14 UNL     1      -5.045   0.207  -2.958  1.00  0.00     0.033 H 
HETATM   38  H15 UNL     1      -5.866   0.983  -1.568  1.00  0.00     0.033 H 
HETATM   39  H16 UNL     1      -3.848   2.191  -1.923  1.00  0.00     0.033 H 
HETATM   40  H17 UNL     1      -3.651   1.257  -0.402  1.00  0.00     0.033 H 
HETATM   41  H18 UNL     1      -2.611   0.304  -3.157  1.00  0.00     0.033 H 
HETATM   42  H19 UNL     1      -2.218  -0.416  -1.559  1.00  0.00     0.033 H 
HETATM   43  H20 UNL     1      -0.423   1.031  -2.604  1.00  0.00     0.033 H 
HETATM   44  H21 UNL     1      -1.483   2.468  -2.413  1.00  0.00     0.033 H 
HETATM   45  H22 UNL     1      -0.456   0.643  -0.118  1.00  0.00     0.033 H 
HETATM   46  H23 UNL     1      -1.544   2.042   0.090  1.00  0.00     0.033 H 
HETATM   47  H24 UNL     1       0.698   2.758   0.648  1.00  0.00     0.033 H 
HETATM   48  H25 UNL     1       0.149   3.599  -0.820  1.00  0.00     0.033 H 
HETATM   49  H26 UNL     1       2.525   2.937  -1.007  1.00  0.00     0.033 H 
HETATM   50  H27 UNL     1       1.546   2.176  -2.265  1.00  0.00     0.033 H 
HETATM   51  H28 UNL     1       3.207   0.595  -1.368  1.00  0.00     0.033 H 
HETATM   52  H29 UNL     1       1.564   0.003  -1.088  1.00  0.00     0.033 H 
HETATM   53  H30 UNL     1       1.645   0.694   1.301  1.00  0.00     0.033 H 
HETATM   54  H31 UNL     1       2.951  -0.429   0.899  1.00  0.00     0.033 H 
HETATM   55  H32 UNL     1       3.234   2.641   1.172  1.00  0.00     0.033 H 
HETATM   56  H33 UNL     1       3.671   1.445   2.405  1.00  0.00     0.033 H 
HETATM   57  H34 UNL     1       5.005   1.662  -0.388  1.00  0.00     0.033 H 
HETATM   58  H35 UNL     1       5.610   2.354   1.125  1.00  0.00     0.033 H 
HETATM   59  H36 UNL     1       6.807   0.461   1.354  1.00  0.00     0.033 H 
HETATM   60  H37 UNL     1       5.299  -0.274   1.978  1.00  0.00     0.033 H 
HETATM   61  H38 UNL     1       6.415  -0.387  -0.912  1.00  0.00     0.033 H 
HETATM   62  H39 UNL     1       4.779  -0.960  -0.474  1.00  0.00     0.033 H 
HETATM   63  H40 UNL     1       5.769  -2.590   1.181  1.00  0.00     0.036 H 
HETATM   64  H41 UNL     1       6.206  -2.873  -0.530  1.00  0.00     0.036 H 
HETATM   65  H42 UNL     1       8.219  -3.216   0.621  1.00  0.00     0.074 H 
HETATM   66  H43 UNL     1       8.394  -1.557  -0.081  1.00  0.00     0.074 H 
HETATM   67  H44 UNL     1       9.886  -2.597   2.209  1.00  0.00     0.066 H 
HETATM   68  H45 UNL     1       9.925  -0.879   1.586  1.00  0.00     0.066 H 
HETATM   69  H46 UNL     1       9.538  -1.220   3.303  1.00  0.00     0.066 H 
TER      70      UNL     1 
ENDMDL
