REMARK FAKE_HEAD_ATOM=C4_O3
REMARK REAL_HEAD_ATOM=C2_C1
REMARK DUMMY_ATOM=C4_H6_H7_H8_O3
REMARK TORSION=H4_C2_C1_O1
REMARK TORSION=C2_C1_O1_H1
REMARK TORSION=H4_C2_C3_O2
MODEL 0
HETATM    1  O1  UNL     1       1.971  -0.881  -0.133  1.00  0.00    -0.398 OA
HETATM    2  C1  UNL     1       0.958  -0.592   0.794  1.00  0.00     0.047 C 
HETATM    3  C2  UNL     1      -0.067   0.389   0.202  1.00  0.00     0.108 C 
HETATM    4  C3  UNL     1       0.568   1.730  -0.040  1.00  0.00     0.117 C 
HETATM    5  O2  UNL     1       0.976   2.399   0.897  1.00  0.00    -0.304 OA
HETATM    6  O3  UNL     1      -0.553  -0.110  -1.034  1.00  0.00    -0.382 OA
HETATM    7  C4  UNL     1      -1.776  -0.791  -0.852  1.00  0.00     0.005 C 
HETATM    8  H1  UNL     1       2.644  -0.154  -0.060  1.00  0.00     0.209 HD
HETATM    9  H2  UNL     1       0.445  -1.540   1.057  1.00  0.00     0.078 H 
HETATM   10  H3  UNL     1       1.389  -0.186   1.738  1.00  0.00     0.078 H 
HETATM   11  H4  UNL     1      -0.878   0.553   0.954  1.00  0.00     0.097 H 
HETATM   12  H5  UNL     1       0.656   2.121  -1.049  1.00  0.00     0.147 H 
HETATM   13  H6  UNL     1      -1.678  -1.616  -0.113  1.00  0.00     0.066 H 
HETATM   14  H7  UNL     1      -2.577  -0.084  -0.542  1.00  0.00     0.066 H 
HETATM   15  H8  UNL     1      -2.078  -1.240  -1.820  1.00  0.00     0.066 H 
TER      16      UNL     1 
ENDMDL
