REMARK FAKE_HEAD_ATOM=C5_O2
REMARK REAL_HEAD_ATOM=C4_C1
REMARK DUMMY_ATOM=C5_H10_H8_H9_O2
REMARK TORSION=H6_C4_C1_C2
REMARK TORSION=C4_C1_C2_C3
REMARK TORSION=C4_C1_O1_H1
MODEL 0
HETATM    1  O1  UNL     1       0.516  -1.282   1.442  1.00  0.00    -0.390 OA
HETATM    2  C1  UNL     1       0.690  -0.890   0.102  1.00  0.00     0.071 C 
HETATM    3  C2  UNL     1       2.047  -0.255  -0.102  1.00  0.00    -0.083 C 
HETATM    4  C3  UNL     1       2.425   0.865   0.525  1.00  0.00    -0.122 C 
HETATM    5  C4  UNL     1      -0.451   0.023  -0.373  1.00  0.00     0.046 C 
HETATM    6  O2  UNL     1      -1.679  -0.665  -0.246  1.00  0.00    -0.393 OA
HETATM    7  C5  UNL     1      -2.729   0.168  -0.683  1.00  0.00     0.004 C 
HETATM    8  H1  UNL     1       0.421  -0.461   1.992  1.00  0.00     0.210 HD
HETATM    9  H2  UNL     1       0.661  -1.811  -0.521  1.00  0.00     0.092 H 
HETATM   10  H3  UNL     1       2.746  -0.731  -0.784  1.00  0.00     0.079 H 
HETATM   11  H4  UNL     1       3.412   1.279   0.344  1.00  0.00     0.066 H 
HETATM   12  H5  UNL     1       1.763   1.378   1.215  1.00  0.00     0.066 H 
HETATM   13  H6  UNL     1      -0.265   0.291  -1.439  1.00  0.00     0.078 H 
HETATM   14  H7  UNL     1      -0.459   0.954   0.239  1.00  0.00     0.078 H 
HETATM   15  H8  UNL     1      -2.610   0.439  -1.756  1.00  0.00     0.066 H 
HETATM   16  H9  UNL     1      -3.685  -0.386  -0.581  1.00  0.00     0.066 H 
HETATM   17  H10 UNL     1      -2.804   1.085  -0.056  1.00  0.00     0.066 H 
TER      18      UNL     1 
ENDMDL
