REMARK FAKE_HEAD_ATOM=C5_O3
REMARK REAL_HEAD_ATOM=C3_C2
REMARK DUMMY_ATOM=C5_H10_H11_H12_O3
REMARK TORSION=H6_C3_C2_C1
REMARK TORSION=C3_C2_C1_O1
REMARK TORSION=C2_C1_O1_H1
REMARK TORSION=H6_C3_C4_O2
REMARK TORSION=C3_C4_O2_H9
MODEL 0
HETATM    1  O1  UNL     1       2.457   0.570   0.416  1.00  0.00    -0.401 OA
HETATM    2  C1  UNL     1       1.921  -0.719   0.518  1.00  0.00     0.019 C 
HETATM    3  C2  UNL     1       0.830  -0.927  -0.538  1.00  0.00    -0.019 C 
HETATM    4  C3  UNL     1      -0.433  -0.091  -0.251  1.00  0.00     0.060 C 
HETATM    5  C4  UNL     1      -1.547  -0.440  -1.250  1.00  0.00     0.041 C 
HETATM    6  O2  UNL     1      -1.964  -1.765  -1.068  1.00  0.00    -0.398 OA
HETATM    7  O3  UNL     1      -0.115   1.285  -0.386  1.00  0.00    -0.389 OA
HETATM    8  C5  UNL     1      -0.703   2.038   0.652  1.00  0.00     0.005 C 
HETATM    9  H1  UNL     1       3.138   0.643   1.135  1.00  0.00     0.209 HD
HETATM   10  H2  UNL     1       2.727  -1.467   0.349  1.00  0.00     0.074 H 
HETATM   11  H3  UNL     1       1.499  -0.881   1.535  1.00  0.00     0.074 H 
HETATM   12  H4  UNL     1       1.236  -0.673  -1.542  1.00  0.00     0.040 H 
HETATM   13  H5  UNL     1       0.565  -2.007  -0.544  1.00  0.00     0.040 H 
HETATM   14  H6  UNL     1      -0.791  -0.367   0.773  1.00  0.00     0.086 H 
HETATM   15  H7  UNL     1      -2.411   0.241  -1.086  1.00  0.00     0.077 H 
HETATM   16  H8  UNL     1      -1.180  -0.296  -2.291  1.00  0.00     0.077 H 
HETATM   17  H9  UNL     1      -2.669  -1.928  -1.747  1.00  0.00     0.209 HD
HETATM   18  H10 UNL     1      -1.807   1.904   0.675  1.00  0.00     0.066 H 
HETATM   19  H11 UNL     1      -0.257   1.769   1.635  1.00  0.00     0.066 H 
HETATM   20  H12 UNL     1      -0.497   3.113   0.470  1.00  0.00     0.066 H 
TER      21      UNL     1 
ENDMDL
