REMARK FAKE_HEAD_ATOM=C6_O1
REMARK REAL_HEAD_ATOM=C5_C4
REMARK DUMMY_ATOM=C6_H11_H12_H13_O1
REMARK TORSION=H10_C5_C4_C3
REMARK TORSION=C5_C4_C3_C2
REMARK TORSION=C4_C3_C2_C1
MODEL 0
HETATM    1  C1  UNL     1      -2.997   0.707   0.414  1.00  0.00    -0.077 C 
HETATM    2  C2  UNL     1      -2.494  -0.261  -0.658  1.00  0.00    -0.068 C 
HETATM    3  C3  UNL     1      -1.033  -0.002  -1.057  1.00  0.00    -0.063 C 
HETATM    4  C4  UNL     1      -0.037  -0.446   0.030  1.00  0.00    -0.041 C 
HETATM    5  C5  UNL     1       1.433  -0.173  -0.357  1.00  0.00     0.034 C 
HETATM    6  O1  UNL     1       2.254  -0.369   0.783  1.00  0.00    -0.391 OA
HETATM    7  C6  UNL     1       2.579   0.865   1.385  1.00  0.00     0.004 C 
HETATM    8  C7  UNL     1       1.912  -1.132  -1.451  1.00  0.00    -0.052 C 
HETATM    9  H1  UNL     1      -2.832   1.759   0.097  1.00  0.00     0.027 H 
HETATM   10  H2  UNL     1      -4.086   0.553   0.567  1.00  0.00     0.027 H 
HETATM   11  H3  UNL     1      -2.485   0.527   1.381  1.00  0.00     0.027 H 
HETATM   12  H4  UNL     1      -3.131  -0.138  -1.560  1.00  0.00     0.032 H 
HETATM   13  H5  UNL     1      -2.616  -1.307  -0.302  1.00  0.00     0.032 H 
HETATM   14  H6  UNL     1      -0.891   1.077  -1.287  1.00  0.00     0.033 H 
HETATM   15  H7  UNL     1      -0.837  -0.574  -1.988  1.00  0.00     0.033 H 
HETATM   16  H8  UNL     1      -0.175  -1.528   0.249  1.00  0.00     0.036 H 
HETATM   17  H9  UNL     1      -0.256   0.112   0.963  1.00  0.00     0.036 H 
HETATM   18  H10 UNL     1       1.514   0.860  -0.778  1.00  0.00     0.082 H 
HETATM   19  H11 UNL     1       3.139   0.666   2.322  1.00  0.00     0.066 H 
HETATM   20  H12 UNL     1       3.236   1.466   0.718  1.00  0.00     0.066 H 
HETATM   21  H13 UNL     1       1.666   1.442   1.652  1.00  0.00     0.066 H 
HETATM   22  H14 UNL     1       2.997  -0.976  -1.632  1.00  0.00     0.030 H 
HETATM   23  H15 UNL     1       1.755  -2.188  -1.144  1.00  0.00     0.030 H 
HETATM   24  H16 UNL     1       1.382  -0.944  -2.407  1.00  0.00     0.030 H 
TER      25      UNL     1 
ENDMDL
