REMARK FAKE_HEAD_ATOM=C5_O2
REMARK REAL_HEAD_ATOM=C3_C2
REMARK DUMMY_ATOM=C5_H10_H11_H12_O2
REMARK TORSION=H6_C3_C2_C1
REMARK TORSION=H6_C3_C4_O1
REMARK TORSION=C3_C4_O1_H9
MODEL 0
HETATM    1  C1  UNL     1       2.207  -0.361   0.151  1.00  0.00    -0.074 C 
HETATM    2  C2  UNL     1       1.017   0.138   0.976  1.00  0.00    -0.042 C 
HETATM    3  C3  UNL     1      -0.323   0.123   0.211  1.00  0.00     0.058 C 
HETATM    4  C4  UNL     1      -0.320   1.071  -1.005  1.00  0.00     0.041 C 
HETATM    5  O1  UNL     1       0.028   2.377  -0.629  1.00  0.00    -0.398 OA
HETATM    6  O2  UNL     1      -0.594  -1.201  -0.221  1.00  0.00    -0.389 OA
HETATM    7  C5  UNL     1      -1.958  -1.517  -0.051  1.00  0.00     0.005 C 
HETATM    8  H1  UNL     1       3.103  -0.427   0.803  1.00  0.00     0.027 H 
HETATM    9  H2  UNL     1       2.003  -1.369  -0.267  1.00  0.00     0.027 H 
HETATM   10  H3  UNL     1       2.436   0.345  -0.674  1.00  0.00     0.027 H 
HETATM   11  H4  UNL     1       1.235   1.164   1.343  1.00  0.00     0.036 H 
HETATM   12  H5  UNL     1       0.916  -0.514   1.871  1.00  0.00     0.036 H 
HETATM   13  H6  UNL     1      -1.087   0.505   0.934  1.00  0.00     0.086 H 
HETATM   14  H7  UNL     1       0.399   0.712  -1.770  1.00  0.00     0.077 H 
HETATM   15  H8  UNL     1      -1.325   1.073  -1.484  1.00  0.00     0.077 H 
HETATM   16  H9  UNL     1      -0.758   2.754  -0.153  1.00  0.00     0.209 HD
HETATM   17  H10 UNL     1      -2.221  -1.554   1.029  1.00  0.00     0.066 H 
HETATM   18  H11 UNL     1      -2.614  -0.795  -0.586  1.00  0.00     0.066 H 
HETATM   19  H12 UNL     1      -2.145  -2.523  -0.479  1.00  0.00     0.066 H 
TER      20      UNL     1 
ENDMDL
