REMARK FAKE_HEAD_ATOM=C5_O1
REMARK REAL_HEAD_ATOM=C3_C2
REMARK DUMMY_ATOM=C5_H12_H13_H14_O1
REMARK TORSION=H6_C3_C2_C1
REMARK TORSION=H6_C3_C4_N1
MODEL 0
HETATM    1  C1  UNL     1      -0.564   2.351   0.219  1.00  0.00    -0.074 C 
HETATM    2  C2  UNL     1       0.283   1.198   0.759  1.00  0.00    -0.043 C 
HETATM    3  C3  UNL     1       0.408   0.018  -0.227  1.00  0.00     0.060 C 
HETATM    4  C4  UNL     1      -0.950  -0.639  -0.576  1.00  0.00     0.103 C 
HETATM    5  N1  UNL     1      -1.649  -1.164   0.600  1.00  0.00    -0.077 N 
HETATM    6  O1  UNL     1       1.268  -0.951   0.354  1.00  0.00    -0.389 OA
HETATM    7  C5  UNL     1       2.159  -1.476  -0.607  1.00  0.00     0.005 C 
HETATM    8  H1  UNL     1      -0.207   2.662  -0.786  1.00  0.00     0.027 H 
HETATM    9  H2  UNL     1      -1.633   2.060   0.160  1.00  0.00     0.027 H 
HETATM   10  H3  UNL     1      -0.484   3.220   0.906  1.00  0.00     0.027 H 
HETATM   11  H4  UNL     1      -0.129   0.856   1.732  1.00  0.00     0.036 H 
HETATM   12  H5  UNL     1       1.304   1.589   0.960  1.00  0.00     0.036 H 
HETATM   13  H6  UNL     1       0.823   0.445  -1.174  1.00  0.00     0.085 H 
HETATM   14  H7  UNL     1      -1.603   0.088  -1.106  1.00  0.00     0.079 H 
HETATM   15  H8  UNL     1      -0.768  -1.473  -1.290  1.00  0.00     0.079 H 
HETATM   16  H9  UNL     1      -2.466  -1.733   0.282  1.00  0.00     0.274 HD
HETATM   17  H10 UNL     1      -2.009  -0.380   1.189  1.00  0.00     0.274 HD
HETATM   18  H11 UNL     1      -1.017  -1.777   1.164  1.00  0.00     0.274 HD
HETATM   19  H12 UNL     1       1.613  -1.915  -1.471  1.00  0.00     0.066 H 
HETATM   20  H13 UNL     1       2.751  -2.286  -0.135  1.00  0.00     0.066 H 
HETATM   21  H14 UNL     1       2.870  -0.694  -0.953  1.00  0.00     0.066 H 
TER      22      UNL     1 
ENDMDL
