REMARK FAKE_HEAD_ATOM=C1_O1
REMARK REAL_HEAD_ATOM=C2_C3
REMARK DUMMY_ATOM=C1_H1_H2_H3_O1
REMARK TORSION=H4_C2_C3_C4
MODEL 0
HETATM    1  C1  UNL     1       2.394   0.267   0.036  1.00  0.00     0.004 C 
HETATM    2  O1  UNL     1       1.151   0.471  -0.597  1.00  0.00    -0.393 OA
HETATM    3  C2  UNL     1       0.148  -0.236   0.100  1.00  0.00     0.045 C 
HETATM    4  C3  UNL     1      -1.182  -0.039  -0.623  1.00  0.00     0.079 A 
HETATM    5  C4  UNL     1      -2.408  -0.153   0.198  1.00  0.00     0.046 A 
HETATM    6  O2  UNL     1      -1.869   1.100  -0.163  1.00  0.00    -0.379 OA
HETATM    7  H1  UNL     1       2.681  -0.808   0.024  1.00  0.00     0.066 H 
HETATM    8  H2  UNL     1       2.384   0.656   1.079  1.00  0.00     0.066 H 
HETATM    9  H3  UNL     1       3.171   0.827  -0.523  1.00  0.00     0.066 H 
HETATM   10  H4  UNL     1       0.367  -1.327   0.103  1.00  0.00     0.078 H 
HETATM   11  H5  UNL     1       0.076   0.125   1.153  1.00  0.00     0.078 H 
HETATM   12  H6  UNL     1      -1.275  -0.180  -1.721  1.00  0.00     0.089 H 
HETATM   13  H7  UNL     1      -3.348  -0.359  -0.353  1.00  0.00     0.078 H 
HETATM   14  H8  UNL     1      -2.289  -0.344   1.286  1.00  0.00     0.078 H 
TER      15      UNL     1 
ENDMDL
