REMARK FAKE_HEAD_ATOM=C13_O1
REMARK REAL_HEAD_ATOM=C12_C11
REMARK DUMMY_ATOM=C13_H26_H27_H28_O1
REMARK TORSION=H24_C12_C11_C10
REMARK TORSION=C12_C11_C10_C9
REMARK TORSION=C11_C10_C9_C8
REMARK TORSION=C10_C9_C8_C7
REMARK TORSION=C9_C8_C7_C6
REMARK TORSION=C8_C7_C6_C5
REMARK TORSION=C7_C6_C5_C4
REMARK TORSION=C6_C5_C4_C3
REMARK TORSION=C5_C4_C3_C2
REMARK TORSION=C4_C3_C2_C1
MODEL 0
HETATM    1  C1  UNL     1      -5.651   1.277   0.694  1.00  0.00    -0.077 C 
HETATM    2  C2  UNL     1      -5.522   0.341  -0.506  1.00  0.00    -0.069 C 
HETATM    3  C3  UNL     1      -4.064   0.128  -0.943  1.00  0.00    -0.065 C 
HETATM    4  C4  UNL     1      -3.222  -0.659   0.086  1.00  0.00    -0.065 C 
HETATM    5  C5  UNL     1      -2.273   0.226   0.918  1.00  0.00    -0.065 C 
HETATM    6  C6  UNL     1      -1.077   0.813   0.138  1.00  0.00    -0.065 C 
HETATM    7  C7  UNL     1      -0.135  -0.222  -0.502  1.00  0.00    -0.065 C 
HETATM    8  C8  UNL     1       0.472  -1.198   0.521  1.00  0.00    -0.065 C 
HETATM    9  C9  UNL     1       1.601  -2.054  -0.089  1.00  0.00    -0.065 C 
HETATM   10  C10 UNL     1       3.012  -1.583   0.304  1.00  0.00    -0.063 C 
HETATM   11  C11 UNL     1       3.367  -0.209  -0.282  1.00  0.00    -0.045 C 
HETATM   12  C12 UNL     1       4.826   0.150  -0.004  1.00  0.00     0.019 C 
HETATM   13  O1  UNL     1       5.097   1.426  -0.545  1.00  0.00    -0.396 OA
HETATM   14  C13 UNL     1       6.441   1.767  -0.289  1.00  0.00     0.004 C 
HETATM   15  H1  UNL     1      -5.125   2.235   0.498  1.00  0.00     0.027 H 
HETATM   16  H2  UNL     1      -5.233   0.801   1.605  1.00  0.00     0.027 H 
HETATM   17  H3  UNL     1      -6.724   1.493   0.879  1.00  0.00     0.027 H 
HETATM   18  H4  UNL     1      -5.996  -0.636  -0.269  1.00  0.00     0.032 H 
HETATM   19  H5  UNL     1      -6.082   0.786  -1.358  1.00  0.00     0.032 H 
HETATM   20  H6  UNL     1      -3.608   1.110  -1.189  1.00  0.00     0.033 H 
HETATM   21  H7  UNL     1      -4.082  -0.453  -1.891  1.00  0.00     0.033 H 
HETATM   22  H8  UNL     1      -2.641  -1.448  -0.434  1.00  0.00     0.033 H 
HETATM   23  H9  UNL     1      -3.890  -1.207   0.785  1.00  0.00     0.033 H 
HETATM   24  H10 UNL     1      -1.893  -0.366   1.778  1.00  0.00     0.033 H 
HETATM   25  H11 UNL     1      -2.848   1.069   1.357  1.00  0.00     0.033 H 
HETATM   26  H12 UNL     1      -0.484   1.441   0.838  1.00  0.00     0.033 H 
HETATM   27  H13 UNL     1      -1.444   1.496  -0.657  1.00  0.00     0.033 H 
HETATM   28  H14 UNL     1      -0.666  -0.788  -1.296  1.00  0.00     0.033 H 
HETATM   29  H15 UNL     1       0.678   0.337  -1.009  1.00  0.00     0.033 H 
HETATM   30  H16 UNL     1      -0.332  -1.883   0.869  1.00  0.00     0.033 H 
HETATM   31  H17 UNL     1       0.838  -0.642   1.412  1.00  0.00     0.033 H 
HETATM   32  H18 UNL     1       1.487  -3.096   0.285  1.00  0.00     0.033 H 
HETATM   33  H19 UNL     1       1.514  -2.108  -1.197  1.00  0.00     0.033 H 
HETATM   34  H20 UNL     1       3.100  -1.553   1.412  1.00  0.00     0.033 H 
HETATM   35  H21 UNL     1       3.740  -2.335  -0.071  1.00  0.00     0.033 H 
HETATM   36  H22 UNL     1       2.720   0.570   0.174  1.00  0.00     0.036 H 
HETATM   37  H23 UNL     1       3.200  -0.217  -1.382  1.00  0.00     0.036 H 
HETATM   38  H24 UNL     1       5.480  -0.620  -0.475  1.00  0.00     0.074 H 
HETATM   39  H25 UNL     1       4.988   0.151   1.099  1.00  0.00     0.074 H 
HETATM   40  H26 UNL     1       7.139   1.049  -0.775  1.00  0.00     0.066 H 
HETATM   41  H27 UNL     1       6.641   1.825   0.804  1.00  0.00     0.066 H 
HETATM   42  H28 UNL     1       6.639   2.770  -0.720  1.00  0.00     0.066 H 
TER      43      UNL     1 
ENDMDL
