REMARK FAKE_HEAD_ATOM=C5_O1
REMARK REAL_HEAD_ATOM=C4_C3
REMARK DUMMY_ATOM=C5_H12_H13_H14_O1
REMARK TORSION=H10_C4_C3_C2
REMARK TORSION=C4_C3_C2_C1
REMARK TORSION=C3_C2_C1_N1
MODEL 0
HETATM    1  N1  UNL     1      -3.080   0.591  -0.025  1.00  0.00    -0.079 N 
HETATM    2  C1  UNL     1      -1.620   0.579   0.072  1.00  0.00     0.080 C 
HETATM    3  C2  UNL     1      -1.074  -0.851  -0.068  1.00  0.00    -0.041 C 
HETATM    4  C3  UNL     1       0.443  -0.931   0.166  1.00  0.00    -0.044 C 
HETATM    5  C4  UNL     1       1.256  -0.309  -0.978  1.00  0.00     0.019 C 
HETATM    6  O1  UNL     1       2.631  -0.603  -0.815  1.00  0.00    -0.396 OA
HETATM    7  C5  UNL     1       3.288   0.457  -0.155  1.00  0.00     0.004 C 
HETATM    8  H1  UNL     1      -3.381   0.207  -0.950  1.00  0.00     0.274 HD
HETATM    9  H2  UNL     1      -3.420   1.576   0.059  1.00  0.00     0.274 HD
HETATM   10  H3  UNL     1      -3.496   0.023   0.748  1.00  0.00     0.274 HD
HETATM   11  H4  UNL     1      -1.201   1.225  -0.730  1.00  0.00     0.075 H 
HETATM   12  H5  UNL     1      -1.316   1.002   1.055  1.00  0.00     0.075 H 
HETATM   13  H6  UNL     1      -1.324  -1.254  -1.074  1.00  0.00     0.035 H 
HETATM   14  H7  UNL     1      -1.572  -1.498   0.686  1.00  0.00     0.035 H 
HETATM   15  H8  UNL     1       0.701  -0.438   1.129  1.00  0.00     0.036 H 
HETATM   16  H9  UNL     1       0.724  -2.003   0.254  1.00  0.00     0.036 H 
HETATM   17  H10 UNL     1       0.928  -0.767  -1.936  1.00  0.00     0.074 H 
HETATM   18  H11 UNL     1       1.049   0.783  -1.065  1.00  0.00     0.074 H 
HETATM   19  H12 UNL     1       4.338   0.157   0.038  1.00  0.00     0.066 H 
HETATM   20  H13 UNL     1       2.816   0.685   0.826  1.00  0.00     0.066 H 
HETATM   21  H14 UNL     1       3.309   1.366  -0.796  1.00  0.00     0.066 H 
TER      22      UNL     1 
ENDMDL
