REMARK FAKE_HEAD_ATOM=C16_O1
REMARK REAL_HEAD_ATOM=C15_C14
REMARK DUMMY_ATOM=C16_H32_H33_H34_O1
REMARK TORSION=H30_C15_C14_C13
REMARK TORSION=C15_C14_C13_C12
REMARK TORSION=C14_C13_C12_C11
REMARK TORSION=C13_C12_C11_C10
REMARK TORSION=C12_C11_C10_C9
REMARK TORSION=C11_C10_C9_C8
REMARK TORSION=C10_C9_C8_C7
REMARK TORSION=C9_C8_C7_C6
REMARK TORSION=C8_C7_C6_C5
REMARK TORSION=C7_C6_C5_C4
REMARK TORSION=C6_C5_C4_C3
REMARK TORSION=C5_C4_C3_C2
REMARK TORSION=C4_C3_C2_C1
MODEL 0
HETATM    1  C1  UNL     1      -6.679   1.437   1.802  1.00  0.00    -0.077 C 
HETATM    2  C2  UNL     1      -6.666   1.163   0.298  1.00  0.00    -0.069 C 
HETATM    3  C3  UNL     1      -5.560   0.181  -0.116  1.00  0.00    -0.065 C 
HETATM    4  C4  UNL     1      -4.152   0.785   0.031  1.00  0.00    -0.065 C 
HETATM    5  C5  UNL     1      -3.065  -0.083  -0.623  1.00  0.00    -0.065 C 
HETATM    6  C6  UNL     1      -2.835  -1.408   0.123  1.00  0.00    -0.065 C 
HETATM    7  C7  UNL     1      -1.655  -2.215  -0.461  1.00  0.00    -0.065 C 
HETATM    8  C8  UNL     1      -0.380  -2.157   0.403  1.00  0.00    -0.065 C 
HETATM    9  C9  UNL     1       0.303  -0.778   0.454  1.00  0.00    -0.065 C 
HETATM   10  C10 UNL     1       0.833  -0.264  -0.901  1.00  0.00    -0.065 C 
HETATM   11  C11 UNL     1       1.842  -1.192  -1.606  1.00  0.00    -0.065 C 
HETATM   12  C12 UNL     1       3.083  -1.558  -0.773  1.00  0.00    -0.065 C 
HETATM   13  C13 UNL     1       3.931  -0.334  -0.397  1.00  0.00    -0.063 C 
HETATM   14  C14 UNL     1       5.235  -0.760   0.290  1.00  0.00    -0.045 C 
HETATM   15  C15 UNL     1       6.077   0.447   0.710  1.00  0.00     0.019 C 
HETATM   16  O1  UNL     1       6.503   1.152  -0.438  1.00  0.00    -0.396 OA
HETATM   17  C16 UNL     1       7.256   2.276  -0.042  1.00  0.00     0.004 C 
HETATM   18  H1  UNL     1      -5.768   1.991   2.108  1.00  0.00     0.027 H 
HETATM   19  H2  UNL     1      -7.563   2.060   2.056  1.00  0.00     0.027 H 
HETATM   20  H3  UNL     1      -6.743   0.485   2.370  1.00  0.00     0.027 H 
HETATM   21  H4  UNL     1      -7.648   0.726   0.015  1.00  0.00     0.032 H 
HETATM   22  H5  UNL     1      -6.555   2.122  -0.254  1.00  0.00     0.032 H 
HETATM   23  H6  UNL     1      -5.727  -0.094  -1.180  1.00  0.00     0.033 H 
HETATM   24  H7  UNL     1      -5.646  -0.744   0.492  1.00  0.00     0.033 H 
HETATM   25  H8  UNL     1      -3.907   0.930   1.105  1.00  0.00     0.033 H 
HETATM   26  H9  UNL     1      -4.133   1.783  -0.458  1.00  0.00     0.033 H 
HETATM   27  H10 UNL     1      -3.335  -0.288  -1.682  1.00  0.00     0.033 H 
HETATM   28  H11 UNL     1      -2.125   0.506  -0.629  1.00  0.00     0.033 H 
HETATM   29  H12 UNL     1      -2.682  -1.213   1.207  1.00  0.00     0.033 H 
HETATM   30  H13 UNL     1      -3.753  -2.027   0.029  1.00  0.00     0.033 H 
HETATM   31  H14 UNL     1      -1.435  -1.919  -1.509  1.00  0.00     0.033 H 
HETATM   32  H15 UNL     1      -1.962  -3.282  -0.509  1.00  0.00     0.033 H 
HETATM   33  H16 UNL     1      -0.637  -2.461   1.441  1.00  0.00     0.033 H 
HETATM   34  H17 UNL     1       0.340  -2.916   0.033  1.00  0.00     0.033 H 
HETATM   35  H18 UNL     1       1.142  -0.825   1.179  1.00  0.00     0.033 H 
HETATM   36  H19 UNL     1      -0.407  -0.032   0.869  1.00  0.00     0.033 H 
HETATM   37  H20 UNL     1      -0.018  -0.088  -1.590  1.00  0.00     0.033 H 
HETATM   38  H21 UNL     1       1.300   0.731  -0.742  1.00  0.00     0.033 H 
HETATM   39  H22 UNL     1       1.329  -2.126  -1.916  1.00  0.00     0.033 H 
HETATM   40  H23 UNL     1       2.176  -0.695  -2.544  1.00  0.00     0.033 H 
HETATM   41  H24 UNL     1       2.785  -2.110   0.143  1.00  0.00     0.033 H 
HETATM   42  H25 UNL     1       3.704  -2.251  -1.382  1.00  0.00     0.033 H 
HETATM   43  H26 UNL     1       3.358   0.318   0.296  1.00  0.00     0.033 H 
HETATM   44  H27 UNL     1       4.169   0.246  -1.316  1.00  0.00     0.033 H 
HETATM   45  H28 UNL     1       4.994  -1.357   1.197  1.00  0.00     0.036 H 
HETATM   46  H29 UNL     1       5.833  -1.399  -0.396  1.00  0.00     0.036 H 
HETATM   47  H30 UNL     1       6.956   0.068   1.280  1.00  0.00     0.074 H 
HETATM   48  H31 UNL     1       5.466   1.097   1.378  1.00  0.00     0.074 H 
HETATM   49  H32 UNL     1       8.164   1.974   0.526  1.00  0.00     0.066 H 
HETATM   50  H33 UNL     1       7.594   2.813  -0.953  1.00  0.00     0.066 H 
HETATM   51  H34 UNL     1       6.640   2.983   0.556  1.00  0.00     0.066 H 
TER      52      UNL     1 
ENDMDL
