REMARK FAKE_HEAD_ATOM=C12_O1
REMARK REAL_HEAD_ATOM=C11_C10
REMARK DUMMY_ATOM=C12_H24_H25_H26_O1
REMARK TORSION=H22_C11_C10_C9
REMARK TORSION=C11_C10_C9_C8
REMARK TORSION=C10_C9_C8_C7
REMARK TORSION=C9_C8_C7_C7
REMARK TORSION=C8_C7_C6_C5
REMARK TORSION=C7_C6_C5_C4
REMARK TORSION=C6_C5_C4_C3
REMARK TORSION=C5_C4_C3_C2
REMARK TORSION=C4_C3_C2_C1
MODEL 0
HETATM    1  C1  UNL     1      -5.463   0.574   1.005  1.00  0.00    -0.077 C 
HETATM    2  C2  UNL     1      -4.086   0.137   0.515  1.00  0.00    -0.069 C 
HETATM    3  C3  UNL     1      -4.134  -0.301  -0.954  1.00  0.00    -0.065 C 
HETATM    4  C4  UNL     1      -2.811  -0.919  -1.439  1.00  0.00    -0.065 C 
HETATM    5  C5  UNL     1      -1.642   0.086  -1.492  1.00  0.00    -0.065 C 
HETATM    6  C6  UNL     1      -0.682  -0.075  -0.303  1.00  0.00    -0.065 C 
HETATM    7  C7  UNL     1       0.452   0.958  -0.367  1.00  0.00    -0.065 C 
HETATM    8  C8  UNL     1       1.351   0.938   0.882  1.00  0.00    -0.065 C 
HETATM    9  C9  UNL     1       2.088  -0.393   1.135  1.00  0.00    -0.063 C 
HETATM   10  C10 UNL     1       2.978  -0.875  -0.027  1.00  0.00    -0.045 C 
HETATM   11  C11 UNL     1       4.090   0.115  -0.409  1.00  0.00     0.019 C 
HETATM   12  O1  UNL     1       4.848   0.499   0.723  1.00  0.00    -0.396 OA
HETATM   13  C12 UNL     1       5.985  -0.325   0.859  1.00  0.00     0.004 C 
HETATM   14  H1  UNL     1      -6.182  -0.270   0.940  1.00  0.00     0.027 H 
HETATM   15  H2  UNL     1      -5.838   1.423   0.395  1.00  0.00     0.027 H 
HETATM   16  H3  UNL     1      -5.395   0.901   2.064  1.00  0.00     0.027 H 
HETATM   17  H4  UNL     1      -3.388   0.994   0.630  1.00  0.00     0.032 H 
HETATM   18  H5  UNL     1      -3.729  -0.703   1.150  1.00  0.00     0.032 H 
HETATM   19  H6  UNL     1      -4.399   0.568  -1.597  1.00  0.00     0.033 H 
HETATM   20  H7  UNL     1      -4.933  -1.065  -1.078  1.00  0.00     0.033 H 
HETATM   21  H8  UNL     1      -2.985  -1.302  -2.468  1.00  0.00     0.033 H 
HETATM   22  H9  UNL     1      -2.557  -1.804  -0.815  1.00  0.00     0.033 H 
HETATM   23  H10 UNL     1      -2.023   1.130  -1.538  1.00  0.00     0.033 H 
HETATM   24  H11 UNL     1      -1.065  -0.090  -2.427  1.00  0.00     0.033 H 
HETATM   25  H12 UNL     1      -0.252  -1.099  -0.333  1.00  0.00     0.033 H 
HETATM   26  H13 UNL     1      -1.235   0.045   0.652  1.00  0.00     0.033 H 
HETATM   27  H14 UNL     1       0.007   1.975  -0.443  1.00  0.00     0.033 H 
HETATM   28  H15 UNL     1       1.060   0.802  -1.283  1.00  0.00     0.033 H 
HETATM   29  H16 UNL     1       0.727   1.166   1.774  1.00  0.00     0.033 H 
HETATM   30  H17 UNL     1       2.094   1.760   0.803  1.00  0.00     0.033 H 
HETATM   31  H18 UNL     1       2.715  -0.278   2.045  1.00  0.00     0.033 H 
HETATM   32  H19 UNL     1       1.347  -1.186   1.370  1.00  0.00     0.033 H 
HETATM   33  H20 UNL     1       3.444  -1.839   0.270  1.00  0.00     0.036 H 
HETATM   34  H21 UNL     1       2.355  -1.092  -0.920  1.00  0.00     0.036 H 
HETATM   35  H22 UNL     1       4.710  -0.321  -1.229  1.00  0.00     0.074 H 
HETATM   36  H23 UNL     1       3.630   1.026  -0.844  1.00  0.00     0.074 H 
HETATM   37  H24 UNL     1       5.705  -1.399   0.932  1.00  0.00     0.066 H 
HETATM   38  H25 UNL     1       6.510  -0.051   1.796  1.00  0.00     0.066 H 
HETATM   39  H26 UNL     1       6.693  -0.164   0.016  1.00  0.00     0.066 H 
TER      40      UNL     1 
ENDMDL
