REMARK FAKE_HEAD_ATOM=C5_O2
REMARK REAL_HEAD_ATOM=C2_C3
REMARK DUMMY_ATOM=C5_H10_H11_H12_O2
REMARK TORSION=H4_C2_C3_C4
REMARK TORSION=C2_C3_C4_O1
REMARK TORSION=C3_C4_O1_H9
MODEL 0
HETATM    1  C1  UNL     1      -0.893  -1.638  -0.933  1.00  0.00    -0.052 C 
HETATM    2  C2  UNL     1      -0.224  -0.372  -0.390  1.00  0.00     0.036 C 
HETATM    3  C3  UNL     1       0.402  -0.659   0.986  1.00  0.00    -0.022 C 
HETATM    4  C4  UNL     1       1.153   0.555   1.549  1.00  0.00     0.019 C 
HETATM    5  O1  UNL     1       2.223   0.915   0.716  1.00  0.00    -0.401 OA
HETATM    6  O2  UNL     1      -1.201   0.647  -0.251  1.00  0.00    -0.391 OA
HETATM    7  C5  UNL     1      -1.132   1.555  -1.328  1.00  0.00     0.004 C 
HETATM    8  H1  UNL     1      -0.149  -2.456  -1.033  1.00  0.00     0.030 H 
HETATM    9  H2  UNL     1      -1.708  -1.969  -0.254  1.00  0.00     0.030 H 
HETATM   10  H3  UNL     1      -1.326  -1.438  -1.936  1.00  0.00     0.030 H 
HETATM   11  H4  UNL     1       0.607  -0.102  -1.088  1.00  0.00     0.082 H 
HETATM   12  H5  UNL     1      -0.397  -0.946   1.705  1.00  0.00     0.039 H 
HETATM   13  H6  UNL     1       1.111  -1.512   0.908  1.00  0.00     0.039 H 
HETATM   14  H7  UNL     1       0.462   1.419   1.641  1.00  0.00     0.074 H 
HETATM   15  H8  UNL     1       1.527   0.320   2.571  1.00  0.00     0.074 H 
HETATM   16  H9  UNL     1       2.933   0.237   0.858  1.00  0.00     0.209 HD
HETATM   17  H10 UNL     1      -1.258   1.036  -2.304  1.00  0.00     0.066 H 
HETATM   18  H11 UNL     1      -0.173   2.117  -1.307  1.00  0.00     0.066 H 
HETATM   19  H12 UNL     1      -1.957   2.289  -1.226  1.00  0.00     0.066 H 
TER      20      UNL     1 
ENDMDL
