REMARK FAKE_HEAD_ATOM=C5_O1
REMARK REAL_HEAD_ATOM=C4_C3
REMARK DUMMY_ATOM=C5_H12_H13_H14_O1
REMARK TORSION=H10_C4_C3_N1
REMARK TORSION=C4_C3_N1_C2
REMARK TORSION=C3_N1_C2_C1
MODEL 0
HETATM    1  C1  UNL     1       2.831  -0.383   0.453  1.00  0.00    -0.054 C 
HETATM    2  C2  UNL     1       1.526   0.317   0.849  1.00  0.00     0.079 C 
HETATM    3  N1  UNL     1       0.842   0.917  -0.313  1.00  0.00    -0.073 N 
HETATM    4  C3  UNL     1       0.036  -0.060  -1.079  1.00  0.00     0.101 C 
HETATM    5  C4  UNL     1      -1.443  -0.053  -0.667  1.00  0.00     0.041 C 
HETATM    6  O1  UNL     1      -1.571  -0.459   0.679  1.00  0.00    -0.394 OA
HETATM    7  C5  UNL     1      -2.930  -0.424   1.051  1.00  0.00     0.004 C 
HETATM    8  H1  UNL     1       3.313  -0.805   1.360  1.00  0.00     0.029 H 
HETATM    9  H2  UNL     1       3.531   0.343  -0.011  1.00  0.00     0.029 H 
HETATM   10  H3  UNL     1       2.638  -1.210  -0.259  1.00  0.00     0.029 H 
HETATM   11  H4  UNL     1       0.866  -0.406   1.376  1.00  0.00     0.075 H 
HETATM   12  H5  UNL     1       1.778   1.118   1.579  1.00  0.00     0.075 H 
HETATM   13  H6  UNL     1       0.237   1.702   0.024  1.00  0.00     0.277 HD
HETATM   14  H7  UNL     1       1.553   1.348  -0.950  1.00  0.00     0.277 HD
HETATM   15  H8  UNL     1       0.083   0.197  -2.161  1.00  0.00     0.079 H 
HETATM   16  H9  UNL     1       0.437  -1.093  -0.984  1.00  0.00     0.079 H 
HETATM   17  H10 UNL     1      -1.853   0.972  -0.819  1.00  0.00     0.076 H 
HETATM   18  H11 UNL     1      -1.986  -0.758  -1.337  1.00  0.00     0.076 H 
HETATM   19  H12 UNL     1      -3.537  -1.118   0.429  1.00  0.00     0.066 H 
HETATM   20  H13 UNL     1      -3.337   0.610   0.990  1.00  0.00     0.066 H 
HETATM   21  H14 UNL     1      -3.016  -0.756   2.106  1.00  0.00     0.066 H 
TER      22      UNL     1 
ENDMDL
