REMARK FAKE_HEAD_ATOM=C8_O1
REMARK REAL_HEAD_ATOM=C7_C6
REMARK DUMMY_ATOM=C8_H15_H16_H17_O1
REMARK TORSION=H14_C7_C6_C5
REMARK TORSION=C7_C6_C5_C4
REMARK TORSION=C6_C5_C4_C3
REMARK TORSION=C5_C4_C3_C2
REMARK TORSION=C4_C3_C2_C1
MODEL 0
HETATM    1  C1  UNL     1       4.597   0.065  -0.777  1.00  0.00    -0.077 C 
HETATM    2  C2  UNL     1       3.205   0.446  -0.280  1.00  0.00    -0.069 C 
HETATM    3  C3  UNL     1       2.597  -0.678   0.572  1.00  0.00    -0.065 C 
HETATM    4  C4  UNL     1       1.254  -0.280   1.206  1.00  0.00    -0.065 C 
HETATM    5  C5  UNL     1       0.117  -0.189   0.177  1.00  0.00    -0.063 C 
HETATM    6  C6  UNL     1      -1.227   0.095   0.868  1.00  0.00    -0.041 C 
HETATM    7  C7  UNL     1      -2.423   0.067  -0.103  1.00  0.00     0.034 C 
HETATM    8  O1  UNL     1      -3.612   0.137   0.668  1.00  0.00    -0.391 OA
HETATM    9  C8  UNL     1      -4.593  -0.741   0.160  1.00  0.00     0.004 C 
HETATM   10  C9  UNL     1      -2.391   1.258  -1.071  1.00  0.00    -0.052 C 
HETATM   11  H1  UNL     1       4.547  -0.855  -1.397  1.00  0.00     0.027 H 
HETATM   12  H2  UNL     1       5.008   0.889  -1.398  1.00  0.00     0.027 H 
HETATM   13  H3  UNL     1       5.281  -0.107   0.081  1.00  0.00     0.027 H 
HETATM   14  H4  UNL     1       3.282   1.377   0.322  1.00  0.00     0.032 H 
HETATM   15  H5  UNL     1       2.562   0.647  -1.163  1.00  0.00     0.032 H 
HETATM   16  H6  UNL     1       2.466  -1.593  -0.045  1.00  0.00     0.033 H 
HETATM   17  H7  UNL     1       3.303  -0.925   1.395  1.00  0.00     0.033 H 
HETATM   18  H8  UNL     1       1.362   0.691   1.738  1.00  0.00     0.033 H 
HETATM   19  H9  UNL     1       0.993  -1.051   1.963  1.00  0.00     0.033 H 
HETATM   20  H10 UNL     1       0.340   0.628  -0.539  1.00  0.00     0.033 H 
HETATM   21  H11 UNL     1       0.050  -1.148  -0.383  1.00  0.00     0.033 H 
HETATM   22  H12 UNL     1      -1.182   1.079   1.385  1.00  0.00     0.036 H 
HETATM   23  H13 UNL     1      -1.397  -0.683   1.644  1.00  0.00     0.036 H 
HETATM   24  H14 UNL     1      -2.348  -0.874  -0.702  1.00  0.00     0.082 H 
HETATM   25  H15 UNL     1      -5.531  -0.595   0.733  1.00  0.00     0.066 H 
HETATM   26  H16 UNL     1      -4.278  -1.800   0.290  1.00  0.00     0.066 H 
HETATM   27  H17 UNL     1      -4.813  -0.530  -0.910  1.00  0.00     0.066 H 
HETATM   28  H18 UNL     1      -2.328   2.215  -0.511  1.00  0.00     0.030 H 
HETATM   29  H19 UNL     1      -1.529   1.180  -1.765  1.00  0.00     0.030 H 
HETATM   30  H20 UNL     1      -3.315   1.271  -1.686  1.00  0.00     0.030 H 
TER      31      UNL     1 
ENDMDL
