REMARK FAKE_HEAD_ATOM=C11_O1
REMARK REAL_HEAD_ATOM=C10_C9
REMARK DUMMY_ATOM=C11_H21_H22_H23_O1
REMARK TORSION=H20_C10_C9_C8
REMARK TORSION=C10_C9_C8_C7
REMARK TORSION=C9_C8_C7_C6
REMARK TORSION=C8_C7_C6_C5
REMARK TORSION=C7_C6_C5_C4
REMARK TORSION=C6_C5_C4_C3
REMARK TORSION=C5_C4_C3_C2
REMARK TORSION=C4_C3_C2_C1
MODEL 0
HETATM    1  C1  UNL     1      -4.772   1.342  -0.793  1.00  0.00    -0.077 C 
HETATM    2  C2  UNL     1      -4.308  -0.103  -0.611  1.00  0.00    -0.069 C 
HETATM    3  C3  UNL     1      -3.249  -0.257   0.495  1.00  0.00    -0.065 C 
HETATM    4  C4  UNL     1      -1.933   0.506   0.246  1.00  0.00    -0.065 C 
HETATM    5  C5  UNL     1      -1.210   0.155  -1.070  1.00  0.00    -0.065 C 
HETATM    6  C6  UNL     1      -0.859  -1.335  -1.242  1.00  0.00    -0.065 C 
HETATM    7  C7  UNL     1       0.106  -1.899  -0.182  1.00  0.00    -0.065 C 
HETATM    8  C8  UNL     1       1.533  -1.316  -0.269  1.00  0.00    -0.063 C 
HETATM    9  C9  UNL     1       1.807  -0.266   0.820  1.00  0.00    -0.041 C 
HETATM   10  C10 UNL     1       3.247   0.268   0.738  1.00  0.00     0.034 C 
HETATM   11  O1  UNL     1       3.409   0.972  -0.484  1.00  0.00    -0.391 OA
HETATM   12  C11 UNL     1       4.659   0.677  -1.067  1.00  0.00     0.004 C 
HETATM   13  C12 UNL     1       3.519   1.223   1.904  1.00  0.00    -0.052 C 
HETATM   14  H1  UNL     1      -5.101   1.770   0.178  1.00  0.00     0.027 H 
HETATM   15  H2  UNL     1      -5.628   1.368  -1.500  1.00  0.00     0.027 H 
HETATM   16  H3  UNL     1      -3.956   1.964  -1.216  1.00  0.00     0.027 H 
HETATM   17  H4  UNL     1      -3.929  -0.500  -1.575  1.00  0.00     0.032 H 
HETATM   18  H5  UNL     1      -5.191  -0.718  -0.332  1.00  0.00     0.032 H 
HETATM   19  H6  UNL     1      -3.683   0.099   1.456  1.00  0.00     0.033 H 
HETATM   20  H7  UNL     1      -3.030  -1.337   0.636  1.00  0.00     0.033 H 
HETATM   21  H8  UNL     1      -2.137   1.598   0.255  1.00  0.00     0.033 H 
HETATM   22  H9  UNL     1      -1.255   0.320   1.104  1.00  0.00     0.033 H 
HETATM   23  H10 UNL     1      -1.841   0.470  -1.928  1.00  0.00     0.033 H 
HETATM   24  H11 UNL     1      -0.283   0.761  -1.145  1.00  0.00     0.033 H 
HETATM   25  H12 UNL     1      -0.408  -1.476  -2.248  1.00  0.00     0.033 H 
HETATM   26  H13 UNL     1      -1.791  -1.938  -1.239  1.00  0.00     0.033 H 
HETATM   27  H14 UNL     1       0.175  -2.994  -0.361  1.00  0.00     0.033 H 
HETATM   28  H15 UNL     1      -0.321  -1.789   0.838  1.00  0.00     0.033 H 
HETATM   29  H16 UNL     1       2.260  -2.148  -0.137  1.00  0.00     0.033 H 
HETATM   30  H17 UNL     1       1.718  -0.882  -1.276  1.00  0.00     0.033 H 
HETATM   31  H18 UNL     1       1.647  -0.734   1.817  1.00  0.00     0.036 H 
HETATM   32  H19 UNL     1       1.100   0.583   0.720  1.00  0.00     0.036 H 
HETATM   33  H20 UNL     1       3.935  -0.607   0.845  1.00  0.00     0.082 H 
HETATM   34  H21 UNL     1       4.782   1.301  -1.976  1.00  0.00     0.066 H 
HETATM   35  H22 UNL     1       5.496   0.919  -0.375  1.00  0.00     0.066 H 
HETATM   36  H23 UNL     1       4.706  -0.389  -1.378  1.00  0.00     0.066 H 
HETATM   37  H24 UNL     1       4.564   1.594   1.854  1.00  0.00     0.030 H 
HETATM   38  H25 UNL     1       2.830   2.094   1.862  1.00  0.00     0.030 H 
HETATM   39  H26 UNL     1       3.383   0.698   2.874  1.00  0.00     0.030 H 
TER      40      UNL     1 
ENDMDL
