REMARK FAKE_HEAD_ATOM=C1_O1
REMARK REAL_HEAD_ATOM=C2_C3
REMARK DUMMY_ATOM=C1_H1_H2_H3_O1
REMARK TORSION=H4_C2_C3_C4
REMARK TORSION=C2_C3_C4_C5
REMARK TORSION=C2_C3_O2_H12
MODEL 0
HETATM    1  C1  UNL     1       2.578  -0.494   1.031  1.00  0.00     0.004 C 
HETATM    2  O1  UNL     1       1.190  -0.741   1.040  1.00  0.00    -0.393 OA
HETATM    3  C2  UNL     1       0.659  -0.667  -0.273  1.00  0.00     0.043 C 
HETATM    4  C3  UNL     1      -0.236   0.574  -0.431  1.00  0.00     0.056 C 
HETATM    5  C4  UNL     1      -1.355   0.648   0.631  1.00  0.00    -0.043 C 
HETATM    6  C5  UNL     1      -2.379  -0.479   0.499  1.00  0.00    -0.074 C 
HETATM    7  O2  UNL     1       0.566   1.723  -0.346  1.00  0.00    -0.393 OA
HETATM    8  H1  UNL     1       3.117  -1.292   0.473  1.00  0.00     0.066 H 
HETATM    9  H2  UNL     1       2.808   0.506   0.602  1.00  0.00     0.066 H 
HETATM   10  H3  UNL     1       2.947  -0.506   2.077  1.00  0.00     0.066 H 
HETATM   11  H4  UNL     1       0.056  -1.581  -0.455  1.00  0.00     0.078 H 
HETATM   12  H5  UNL     1       1.431  -0.659  -1.080  1.00  0.00     0.078 H 
HETATM   13  H6  UNL     1      -0.701   0.526  -1.443  1.00  0.00     0.086 H 
HETATM   14  H7  UNL     1      -0.920   0.637   1.654  1.00  0.00     0.036 H 
HETATM   15  H8  UNL     1      -1.893   1.614   0.511  1.00  0.00     0.036 H 
HETATM   16  H9  UNL     1      -2.773  -0.528  -0.538  1.00  0.00     0.027 H 
HETATM   17  H10 UNL     1      -3.227  -0.289   1.191  1.00  0.00     0.027 H 
HETATM   18  H11 UNL     1      -1.926  -1.455   0.772  1.00  0.00     0.027 H 
HETATM   19  H12 UNL     1       0.056   2.464  -0.766  1.00  0.00     0.210 HD
TER      20      UNL     1 
ENDMDL
