REMARK FAKE_HEAD_ATOM=C3_O1
REMARK REAL_HEAD_ATOM=C2_C1
REMARK DUMMY_ATOM=C3_H4_H5_H6_O1
REMARK TORSION=H2_C2_C1_C4
REMARK TORSION=C1_C4_C5_C6
REMARK TORSION=C4_C5_C6_C7
MODEL 0
HETATM    1  C1  UNL     1       1.055  -1.644  -0.833  1.00  0.00    -0.084 C 
HETATM    2  C2  UNL     1       1.952  -0.558  -0.305  1.00  0.00     0.034 C 
HETATM    3  O1  UNL     1       1.463  -0.107   0.940  1.00  0.00    -0.392 OA
HETATM    4  C3  UNL     1       2.237   0.985   1.379  1.00  0.00     0.004 C 
HETATM    5  C4  UNL     1      -0.231  -1.461  -1.184  1.00  0.00    -0.105 C 
HETATM    6  C5  UNL     1      -0.981  -0.159  -1.047  1.00  0.00    -0.050 C 
HETATM    7  C6  UNL     1      -1.836  -0.165   0.224  1.00  0.00    -0.066 C 
HETATM    8  C7  UNL     1      -2.591   1.150   0.387  1.00  0.00    -0.076 C 
HETATM    9  H1  UNL     1       1.482  -2.635  -0.956  1.00  0.00     0.079 H 
HETATM   10  H2  UNL     1       2.000   0.264  -1.055  1.00  0.00     0.080 H 
HETATM   11  H3  UNL     1       2.973  -0.984  -0.181  1.00  0.00     0.080 H 
HETATM   12  H4  UNL     1       2.133   1.852   0.689  1.00  0.00     0.066 H 
HETATM   13  H5  UNL     1       3.308   0.703   1.493  1.00  0.00     0.066 H 
HETATM   14  H6  UNL     1       1.866   1.303   2.375  1.00  0.00     0.066 H 
HETATM   15  H7  UNL     1      -0.789  -2.321  -1.545  1.00  0.00     0.076 H 
HETATM   16  H8  UNL     1      -1.643  -0.046  -1.932  1.00  0.00     0.038 H 
HETATM   17  H9  UNL     1      -0.292   0.712  -1.041  1.00  0.00     0.038 H 
HETATM   18  H10 UNL     1      -1.191  -0.321   1.115  1.00  0.00     0.032 H 
HETATM   19  H11 UNL     1      -2.571  -0.999   0.175  1.00  0.00     0.032 H 
HETATM   20  H12 UNL     1      -1.876   1.997   0.470  1.00  0.00     0.027 H 
HETATM   21  H13 UNL     1      -3.207   1.114   1.310  1.00  0.00     0.027 H 
HETATM   22  H14 UNL     1      -3.263   1.320  -0.482  1.00  0.00     0.027 H 
TER      23      UNL     1 
ENDMDL
