REMARK FAKE_HEAD_ATOM=C5_O2
REMARK REAL_HEAD_ATOM=C2_C3
REMARK DUMMY_ATOM=C5_H10_H8_H9_O2
REMARK TORSION=C1_C2_C3_C4
REMARK TORSION=C2_C3_C4_O1
MODEL 0
HETATM    1  C1  UNL     1      -0.174   0.765   1.337  1.00  0.00    -0.052 C 
HETATM    2  C2  UNL     1      -0.095  -0.033   0.028  1.00  0.00     0.040 C 
HETATM    3  C3  UNL     1       1.178   0.327  -0.759  1.00  0.00     0.007 C 
HETATM    4  C4  UNL     1       2.430  -0.184  -0.103  1.00  0.00     0.090 C 
HETATM    5  O1  UNL     1       3.518   0.058  -0.599  1.00  0.00    -0.307 OA
HETATM    6  O2  UNL     1      -1.216   0.292  -0.777  1.00  0.00    -0.391 OA
HETATM    7  C5  UNL     1      -2.223  -0.689  -0.655  1.00  0.00     0.004 C 
HETATM    8  H1  UNL     1       0.694   0.540   1.991  1.00  0.00     0.030 H 
HETATM    9  H2  UNL     1      -0.195   1.856   1.127  1.00  0.00     0.030 H 
HETATM   10  H3  UNL     1      -1.097   0.495   1.891  1.00  0.00     0.030 H 
HETATM   11  H4  UNL     1      -0.040  -1.122   0.278  1.00  0.00     0.083 H 
HETATM   12  H5  UNL     1       1.249   1.429  -0.883  1.00  0.00     0.047 H 
HETATM   13  H6  UNL     1       1.113  -0.126  -1.773  1.00  0.00     0.047 H 
HETATM   14  H7  UNL     1       2.385  -0.771   0.809  1.00  0.00     0.143 H 
HETATM   15  H8  UNL     1      -1.883  -1.656  -1.087  1.00  0.00     0.066 H 
HETATM   16  H9  UNL     1      -3.113  -0.357  -1.228  1.00  0.00     0.066 H 
HETATM   17  H10 UNL     1      -2.533  -0.825   0.404  1.00  0.00     0.066 H 
TER      18      UNL     1 
ENDMDL
