REMARK FAKE_HEAD_ATOM=C4_O1
REMARK REAL_HEAD_ATOM=C3_C2
REMARK DUMMY_ATOM=C4_H7_H8_H9_O1
REMARK TORSION=H5_C3_C2_C1
REMARK TORSION=C3_C2_O2_H10
MODEL 0
HETATM    1  C1  UNL     1      -2.114  -0.138   0.451  1.00  0.00    -0.051 C 
HETATM    2  C2  UNL     1      -0.869  -0.050  -0.436  1.00  0.00     0.052 C 
HETATM    3  C3  UNL     1       0.350  -0.643   0.280  1.00  0.00     0.042 C 
HETATM    4  O1  UNL     1       1.460  -0.660  -0.601  1.00  0.00    -0.393 OA
HETATM    5  C4  UNL     1       2.468   0.215  -0.147  1.00  0.00     0.004 C 
HETATM    6  O2  UNL     1      -0.611   1.291  -0.760  1.00  0.00    -0.394 OA
HETATM    7  H1  UNL     1      -2.330  -1.196   0.710  1.00  0.00     0.031 H 
HETATM    8  H2  UNL     1      -2.992   0.275  -0.090  1.00  0.00     0.031 H 
HETATM    9  H3  UNL     1      -1.966   0.443   1.386  1.00  0.00     0.031 H 
HETATM   10  H4  UNL     1      -1.049  -0.639  -1.366  1.00  0.00     0.085 H 
HETATM   11  H5  UNL     1       0.526  -0.094   1.238  1.00  0.00     0.078 H 
HETATM   12  H6  UNL     1       0.125  -1.696   0.557  1.00  0.00     0.078 H 
HETATM   13  H7  UNL     1       3.300   0.209  -0.881  1.00  0.00     0.066 H 
HETATM   14  H8  UNL     1       2.091   1.259  -0.071  1.00  0.00     0.066 H 
HETATM   15  H9  UNL     1       2.876  -0.125   0.831  1.00  0.00     0.066 H 
HETATM   16  H10 UNL     1      -1.265   1.548  -1.461  1.00  0.00     0.210 HD
TER      17      UNL     1 
ENDMDL
