REMARK FAKE_HEAD_ATOM=C1_O1
REMARK REAL_HEAD_ATOM=C2_C3
REMARK DUMMY_ATOM=C1_H1_H2_H3_O1
REMARK TORSION=H4_C2_C3_C4
REMARK TORSION=C2_C3_C4_N1
MODEL 0
HETATM    1  C1  UNL     1       2.760   0.883  -0.558  1.00  0.00     0.004 C 
HETATM    2  O1  UNL     1       1.640   0.052  -0.765  1.00  0.00    -0.396 OA
HETATM    3  C2  UNL     1       0.913  -0.066   0.440  1.00  0.00     0.023 C 
HETATM    4  C3  UNL     1      -0.341  -0.930   0.211  1.00  0.00    -0.014 C 
HETATM    5  C4  UNL     1      -1.238  -0.412  -0.944  1.00  0.00     0.085 C 
HETATM    6  N1  UNL     1      -1.715   0.959  -0.744  1.00  0.00    -0.079 N 
HETATM    7  C5  UNL     1      -1.128  -1.102   1.518  1.00  0.00    -0.069 C 
HETATM    8  H1  UNL     1       2.448   1.915  -0.282  1.00  0.00     0.066 H 
HETATM    9  H2  UNL     1       3.439   0.461   0.216  1.00  0.00     0.066 H 
HETATM   10  H3  UNL     1       3.332   0.948  -1.506  1.00  0.00     0.066 H 
HETATM   11  H4  UNL     1       1.541  -0.563   1.215  1.00  0.00     0.074 H 
HETATM   12  H5  UNL     1       0.609   0.934   0.827  1.00  0.00     0.074 H 
HETATM   13  H6  UNL     1       0.009  -1.943  -0.089  1.00  0.00     0.045 H 
HETATM   14  H7  UNL     1      -0.671  -0.464  -1.900  1.00  0.00     0.075 H 
HETATM   15  H8  UNL     1      -2.112  -1.091  -1.057  1.00  0.00     0.075 H 
HETATM   16  H9  UNL     1      -2.359   1.207  -1.530  1.00  0.00     0.274 HD
HETATM   17  H10 UNL     1      -0.917   1.633  -0.757  1.00  0.00     0.274 HD
HETATM   18  H11 UNL     1      -2.246   1.043   0.151  1.00  0.00     0.274 HD
HETATM   19  H12 UNL     1      -2.048  -1.698   1.340  1.00  0.00     0.028 H 
HETATM   20  H13 UNL     1      -0.507  -1.645   2.263  1.00  0.00     0.028 H 
HETATM   21  H14 UNL     1      -1.409  -0.120   1.952  1.00  0.00     0.028 H 
TER      22      UNL     1 
ENDMDL
