REMARK FAKE_HEAD_ATOM=C6_O1
REMARK REAL_HEAD_ATOM=C5_C4
REMARK DUMMY_ATOM=C6_H11_H12_H13_O1
REMARK TORSION=H9_C5_C4_C3
REMARK TORSION=C5_C4_C3_C2
REMARK TORSION=C4_C3_C2_C1
REMARK TORSION=C5_C4_O2_H14
MODEL 0
HETATM    1  C1  UNL     1      -3.207   0.822   0.377  1.00  0.00    -0.076 C 
HETATM    2  C2  UNL     1      -2.182  -0.275   0.648  1.00  0.00    -0.066 C 
HETATM    3  C3  UNL     1      -0.795   0.119   0.121  1.00  0.00    -0.039 C 
HETATM    4  C4  UNL     1       0.258  -0.968   0.421  1.00  0.00     0.056 C 
HETATM    5  C5  UNL     1       1.662  -0.535  -0.030  1.00  0.00     0.043 C 
HETATM    6  O1  UNL     1       2.085   0.576   0.734  1.00  0.00    -0.393 OA
HETATM    7  C6  UNL     1       3.363   0.982   0.300  1.00  0.00     0.004 C 
HETATM    8  O2  UNL     1      -0.091  -2.186  -0.188  1.00  0.00    -0.393 OA
HETATM    9  H1  UNL     1      -2.909   1.763   0.884  1.00  0.00     0.027 H 
HETATM   10  H2  UNL     1      -4.199   0.508   0.765  1.00  0.00     0.027 H 
HETATM   11  H3  UNL     1      -3.296   1.006  -0.715  1.00  0.00     0.027 H 
HETATM   12  H4  UNL     1      -2.129  -0.455   1.744  1.00  0.00     0.032 H 
HETATM   13  H5  UNL     1      -2.522  -1.211   0.153  1.00  0.00     0.032 H 
HETATM   14  H6  UNL     1      -0.487   1.072   0.605  1.00  0.00     0.036 H 
HETATM   15  H7  UNL     1      -0.851   0.294  -0.977  1.00  0.00     0.036 H 
HETATM   16  H8  UNL     1       0.291  -1.135   1.520  1.00  0.00     0.086 H 
HETATM   17  H9  UNL     1       1.633  -0.284  -1.116  1.00  0.00     0.078 H 
HETATM   18  H10 UNL     1       2.355  -1.394   0.125  1.00  0.00     0.078 H 
HETATM   19  H11 UNL     1       3.687   1.847   0.915  1.00  0.00     0.066 H 
HETATM   20  H12 UNL     1       3.341   1.315  -0.761  1.00  0.00     0.066 H 
HETATM   21  H13 UNL     1       4.113   0.172   0.439  1.00  0.00     0.066 H 
HETATM   22  H14 UNL     1      -0.121  -2.034  -1.169  1.00  0.00     0.210 HD
TER      23      UNL     1 
ENDMDL
