REMARK FAKE_HEAD_ATOM=C5_O2
REMARK REAL_HEAD_ATOM=C4_C3
REMARK DUMMY_ATOM=C5_H10_H11_H9_O2
REMARK TORSION=H7_C4_C3_C2
REMARK TORSION=C4_C3_C2_C1
REMARK TORSION=C3_C2_C1_O1
REMARK TORSION=C2_C1_O1_H1
REMARK TORSION=C4_C3_O3_H12
MODEL 0
HETATM    1  O1  UNL     1      -3.526  -0.275  -0.029  1.00  0.00    -0.401 OA
HETATM    2  C1  UNL     1      -2.276   0.266  -0.359  1.00  0.00     0.019 C 
HETATM    3  C2  UNL     1      -1.236  -0.130   0.700  1.00  0.00    -0.019 C 
HETATM    4  C3  UNL     1       0.188   0.404   0.428  1.00  0.00     0.058 C 
HETATM    5  C4  UNL     1       0.825  -0.187  -0.847  1.00  0.00     0.043 C 
HETATM    6  O2  UNL     1       2.167   0.249  -0.969  1.00  0.00    -0.393 OA
HETATM    7  C5  UNL     1       3.054  -0.743  -0.499  1.00  0.00     0.004 C 
HETATM    8  O3  UNL     1       0.211   1.811   0.418  1.00  0.00    -0.393 OA
HETATM    9  H1  UNL     1      -3.893   0.284   0.705  1.00  0.00     0.209 HD
HETATM   10  H2  UNL     1      -2.353   1.373  -0.442  1.00  0.00     0.074 H 
HETATM   11  H3  UNL     1      -1.981  -0.136  -1.350  1.00  0.00     0.074 H 
HETATM   12  H4  UNL     1      -1.200  -1.239   0.773  1.00  0.00     0.040 H 
HETATM   13  H5  UNL     1      -1.571   0.254   1.688  1.00  0.00     0.040 H 
HETATM   14  H6  UNL     1       0.810   0.075   1.288  1.00  0.00     0.086 H 
HETATM   15  H7  UNL     1       0.276   0.178  -1.739  1.00  0.00     0.078 H 
HETATM   16  H8  UNL     1       0.715  -1.299  -0.852  1.00  0.00     0.078 H 
HETATM   17  H9  UNL     1       3.029  -1.638  -1.160  1.00  0.00     0.066 H 
HETATM   18  H10 UNL     1       4.085  -0.335  -0.522  1.00  0.00     0.066 H 
HETATM   19  H11 UNL     1       2.827  -1.031   0.551  1.00  0.00     0.066 H 
HETATM   20  H12 UNL     1      -0.153   2.118  -0.452  1.00  0.00     0.210 HD
TER      21      UNL     1 
ENDMDL
