REMARK FAKE_HEAD_ATOM=C6_O2
REMARK REAL_HEAD_ATOM=C5_C4
REMARK DUMMY_ATOM=C6_H12_H13_H14_O2
REMARK TORSION=H10_C5_C4_C3
REMARK TORSION=C5_C4_C3_C2
REMARK TORSION=C4_C3_C2_C1
REMARK TORSION=C3_C2_C1_O1
REMARK TORSION=C2_C1_O1_H1
MODEL 0
HETATM    1  O1  UNL     1      -3.624   0.599  -0.842  1.00  0.00    -0.401 OA
HETATM    2  C1  UNL     1      -2.993  -0.163   0.152  1.00  0.00     0.017 C 
HETATM    3  C2  UNL     1      -1.488   0.127   0.192  1.00  0.00    -0.045 C 
HETATM    4  C3  UNL     1      -0.792  -0.304  -1.108  1.00  0.00    -0.061 C 
HETATM    5  C4  UNL     1       0.698   0.072  -1.132  1.00  0.00    -0.045 C 
HETATM    6  C5  UNL     1       1.545  -0.786  -0.183  1.00  0.00     0.019 C 
HETATM    7  O2  UNL     1       2.923  -0.548  -0.408  1.00  0.00    -0.396 OA
HETATM    8  C6  UNL     1       3.409   0.421   0.495  1.00  0.00     0.004 C 
HETATM    9  H1  UNL     1      -3.680   1.528  -0.496  1.00  0.00     0.209 HD
HETATM   10  H2  UNL     1      -3.442   0.058   1.146  1.00  0.00     0.073 H 
HETATM   11  H3  UNL     1      -3.161  -1.241  -0.059  1.00  0.00     0.073 H 
HETATM   12  H4  UNL     1      -1.055  -0.427   1.051  1.00  0.00     0.036 H 
HETATM   13  H5  UNL     1      -1.330   1.214   0.366  1.00  0.00     0.036 H 
HETATM   14  H6  UNL     1      -0.907  -1.400  -1.255  1.00  0.00     0.033 H 
HETATM   15  H7  UNL     1      -1.284   0.203  -1.967  1.00  0.00     0.033 H 
HETATM   16  H8  UNL     1       1.076  -0.074  -2.168  1.00  0.00     0.036 H 
HETATM   17  H9  UNL     1       0.818   1.148  -0.883  1.00  0.00     0.036 H 
HETATM   18  H10 UNL     1       1.352  -1.857  -0.405  1.00  0.00     0.074 H 
HETATM   19  H11 UNL     1       1.240  -0.625   0.878  1.00  0.00     0.074 H 
HETATM   20  H12 UNL     1       3.398   0.031   1.536  1.00  0.00     0.066 H 
HETATM   21  H13 UNL     1       4.462   0.652   0.233  1.00  0.00     0.066 H 
HETATM   22  H14 UNL     1       2.831   1.369   0.430  1.00  0.00     0.066 H 
TER      23      UNL     1 
ENDMDL
