REMARK FAKE_HEAD_ATOM=C5_O2
REMARK REAL_HEAD_ATOM=C3_C2
REMARK DUMMY_ATOM=C5_H10_H11_H12_O2
REMARK TORSION=H6_C3_C4_O1
REMARK TORSION=C3_C4_O1_H9
REMARK TORSION=H6_C3_C2_C1
MODEL 0
HETATM    1  C1  UNL     1       2.113  -0.901  -0.169  1.00  0.00    -0.074 C 
HETATM    2  C2  UNL     1       1.382   0.419   0.070  1.00  0.00    -0.042 C 
HETATM    3  C3  UNL     1      -0.131   0.287  -0.176  1.00  0.00     0.058 C 
HETATM    4  C4  UNL     1      -0.806   1.655  -0.024  1.00  0.00     0.041 C 
HETATM    5  O1  UNL     1      -2.174   1.542  -0.300  1.00  0.00    -0.398 OA
HETATM    6  O2  UNL     1      -0.681  -0.606   0.781  1.00  0.00    -0.389 OA
HETATM    7  C5  UNL     1      -1.389  -1.648   0.148  1.00  0.00     0.005 C 
HETATM    8  H1  UNL     1       3.203  -0.753  -0.020  1.00  0.00     0.027 H 
HETATM    9  H2  UNL     1       1.942  -1.254  -1.209  1.00  0.00     0.027 H 
HETATM   10  H3  UNL     1       1.762  -1.675   0.545  1.00  0.00     0.027 H 
HETATM   11  H4  UNL     1       1.808   1.184  -0.616  1.00  0.00     0.036 H 
HETATM   12  H5  UNL     1       1.568   0.751   1.116  1.00  0.00     0.036 H 
HETATM   13  H6  UNL     1      -0.272  -0.038  -1.238  1.00  0.00     0.086 H 
HETATM   14  H7  UNL     1      -0.664   2.030   1.015  1.00  0.00     0.077 H 
HETATM   15  H8  UNL     1      -0.347   2.380  -0.733  1.00  0.00     0.077 H 
HETATM   16  H9  UNL     1      -2.556   2.450  -0.178  1.00  0.00     0.209 HD
HETATM   17  H10 UNL     1      -0.709  -2.264  -0.483  1.00  0.00     0.066 H 
HETATM   18  H11 UNL     1      -1.819  -2.310   0.927  1.00  0.00     0.066 H 
HETATM   19  H12 UNL     1      -2.230  -1.249  -0.462  1.00  0.00     0.066 H 
TER      20      UNL     1 
ENDMDL
