REMARK FAKE_HEAD_ATOM=C1_O1
REMARK REAL_HEAD_ATOM=C2_C3
REMARK DUMMY_ATOM=C1_H1_H2_H3_O1
REMARK TORSION=H4_C2_C3_C4
REMARK TORSION=C2_C3_C4_C5
MODEL 0
HETATM    1  C1  UNL     1       3.480   0.261   0.112  1.00  0.00     0.004 C 
HETATM    2  O1  UNL     1       2.344  -0.566   0.229  1.00  0.00    -0.396 OA
HETATM    3  C2  UNL     1       1.185   0.187  -0.059  1.00  0.00     0.019 C 
HETATM    4  C3  UNL     1      -0.041  -0.724   0.057  1.00  0.00    -0.043 C 
HETATM    5  C4  UNL     1      -1.348  -0.044  -0.411  1.00  0.00    -0.059 C 
HETATM    6  C5  UNL     1      -1.768   1.098   0.527  1.00  0.00    -0.073 C 
HETATM    7  C6  UNL     1      -2.474  -1.080  -0.505  1.00  0.00    -0.073 C 
HETATM    8  H1  UNL     1       4.382  -0.343   0.343  1.00  0.00     0.066 H 
HETATM    9  H2  UNL     1       3.592   0.649  -0.925  1.00  0.00     0.066 H 
HETATM   10  H3  UNL     1       3.444   1.102   0.840  1.00  0.00     0.066 H 
HETATM   11  H4  UNL     1       1.083   1.025   0.667  1.00  0.00     0.074 H 
HETATM   12  H5  UNL     1       1.231   0.593  -1.096  1.00  0.00     0.074 H 
HETATM   13  H6  UNL     1       0.143  -1.623  -0.573  1.00  0.00     0.036 H 
HETATM   14  H7  UNL     1      -0.146  -1.068   1.110  1.00  0.00     0.036 H 
HETATM   15  H8  UNL     1      -1.192   0.377  -1.429  1.00  0.00     0.038 H 
HETATM   16  H9  UNL     1      -2.749   1.514   0.211  1.00  0.00     0.028 H 
HETATM   17  H10 UNL     1      -1.032   1.928   0.490  1.00  0.00     0.028 H 
HETATM   18  H11 UNL     1      -1.855   0.735   1.574  1.00  0.00     0.028 H 
HETATM   19  H12 UNL     1      -3.408  -0.603  -0.874  1.00  0.00     0.028 H 
HETATM   20  H13 UNL     1      -2.198  -1.885  -1.219  1.00  0.00     0.028 H 
HETATM   21  H14 UNL     1      -2.672  -1.535   0.489  1.00  0.00     0.028 H 
TER      22      UNL     1 
ENDMDL
