REMARK FAKE_HEAD_ATOM=C6_O2
REMARK REAL_HEAD_ATOM=C2_C3
REMARK DUMMY_ATOM=C6_H12_H13_H14_O2
REMARK TORSION=H4_C2_C3_C4
REMARK TORSION=C2_C3_C4_O1
REMARK TORSION=C3_C4_O1_H8
MODEL 0
HETATM    1  C1  UNL     1       0.868  -1.828   0.053  1.00  0.00    -0.052 C 
HETATM    2  C2  UNL     1       0.843  -0.304   0.202  1.00  0.00     0.036 C 
HETATM    3  C3  UNL     1      -0.501   0.190   0.790  1.00  0.00    -0.018 C 
HETATM    4  C4  UNL     1      -1.753  -0.116  -0.065  1.00  0.00     0.034 C 
HETATM    5  O1  UNL     1      -2.894   0.350   0.608  1.00  0.00    -0.396 OA
HETATM    6  C5  UNL     1      -1.696   0.558  -1.438  1.00  0.00    -0.052 C 
HETATM    7  O2  UNL     1       1.889   0.062   1.088  1.00  0.00    -0.391 OA
HETATM    8  C6  UNL     1       2.530   1.241   0.650  1.00  0.00     0.004 C 
HETATM    9  H1  UNL     1       0.590  -2.321   1.009  1.00  0.00     0.030 H 
HETATM   10  H2  UNL     1       0.176  -2.159  -0.749  1.00  0.00     0.030 H 
HETATM   11  H3  UNL     1       1.890  -2.157  -0.230  1.00  0.00     0.030 H 
HETATM   12  H4  UNL     1       0.984   0.121  -0.820  1.00  0.00     0.082 H 
HETATM   13  H5  UNL     1      -0.637  -0.267   1.795  1.00  0.00     0.040 H 
HETATM   14  H6  UNL     1      -0.443   1.289   0.947  1.00  0.00     0.040 H 
HETATM   15  H7  UNL     1      -1.850  -1.214  -0.222  1.00  0.00     0.082 H 
HETATM   16  H8  UNL     1      -3.083  -0.296   1.338  1.00  0.00     0.210 HD
HETATM   17  H9  UNL     1      -1.474   1.641  -1.335  1.00  0.00     0.030 H 
HETATM   18  H10 UNL     1      -0.926   0.081  -2.079  1.00  0.00     0.030 H 
HETATM   19  H11 UNL     1      -2.674   0.444  -1.952  1.00  0.00     0.030 H 
HETATM   20  H12 UNL     1       3.272   1.546   1.416  1.00  0.00     0.066 H 
HETATM   21  H13 UNL     1       1.807   2.077   0.527  1.00  0.00     0.066 H 
HETATM   22  H14 UNL     1       3.079   1.060  -0.300  1.00  0.00     0.066 H 
TER      23      UNL     1 
ENDMDL
