REMARK FAKE_HEAD_ATOM=C5_O1
REMARK REAL_HEAD_ATOM=C4_C3
REMARK DUMMY_ATOM=C5_H10_H11_H12_O1
REMARK TORSION=H9_C4_C3_C2
REMARK TORSION=C4_C3_C2_S1
REMARK TORSION=C3_C2_S1_C1
MODEL 0
HETATM    1  C1  UNL     1       3.471   0.801   0.342  1.00  0.00    -0.035 C 
HETATM    2  S1  UNL     1       1.893   0.946  -0.553  1.00  0.00    -0.173 SA
HETATM    3  C2  UNL     1       1.261  -0.679  -0.005  1.00  0.00    -0.022 C 
HETATM    4  C3  UNL     1      -0.135  -0.948  -0.576  1.00  0.00    -0.037 C 
HETATM    5  C4  UNL     1      -1.207  -0.064   0.068  1.00  0.00     0.020 C 
HETATM    6  O1  UNL     1      -2.466  -0.403  -0.474  1.00  0.00    -0.396 OA
HETATM    7  C5  UNL     1      -3.461   0.402   0.116  1.00  0.00     0.004 C 
HETATM    8  H1  UNL     1       4.036  -0.083  -0.021  1.00  0.00     0.041 H 
HETATM    9  H2  UNL     1       3.285   0.706   1.432  1.00  0.00     0.041 H 
HETATM   10  H3  UNL     1       4.076   1.712   0.160  1.00  0.00     0.041 H 
HETATM   11  H4  UNL     1       1.233  -0.723   1.105  1.00  0.00     0.049 H 
HETATM   12  H5  UNL     1       1.951  -1.470  -0.369  1.00  0.00     0.049 H 
HETATM   13  H6  UNL     1      -0.127  -0.788  -1.676  1.00  0.00     0.037 H 
HETATM   14  H7  UNL     1      -0.393  -2.013  -0.389  1.00  0.00     0.037 H 
HETATM   15  H8  UNL     1      -1.197  -0.237   1.169  1.00  0.00     0.074 H 
HETATM   16  H9  UNL     1      -0.969   1.004  -0.142  1.00  0.00     0.074 H 
HETATM   17  H10 UNL     1      -3.290   1.480  -0.102  1.00  0.00     0.066 H 
HETATM   18  H11 UNL     1      -4.444   0.125  -0.318  1.00  0.00     0.066 H 
HETATM   19  H12 UNL     1      -3.520   0.232   1.214  1.00  0.00     0.066 H 
TER      20      UNL     1 
ENDMDL
