REMARK FAKE_HEAD_ATOM=C6_O2
REMARK REAL_HEAD_ATOM=C5_C4
REMARK DUMMY_ATOM=C6_H12_H13_H14_O2
REMARK TORSION=H10_C5_C4_C3
REMARK TORSION=C5_C4_C3_O1
REMARK TORSION=C4_C3_O1_C2
REMARK TORSION=C3_O1_C2_C1
MODEL 0
HETATM    1  C1  UNL     1      -3.594   0.261   0.418  1.00  0.00    -0.056 C 
HETATM    2  C2  UNL     1      -2.570  -0.817   0.080  1.00  0.00     0.016 C 
HETATM    3  O1  UNL     1      -1.270  -0.387   0.438  1.00  0.00    -0.391 OA
HETATM    4  C3  UNL     1      -0.594   0.141  -0.686  1.00  0.00     0.021 C 
HETATM    5  C4  UNL     1       0.752   0.723  -0.252  1.00  0.00    -0.025 C 
HETATM    6  C5  UNL     1       1.698  -0.358   0.285  1.00  0.00     0.021 C 
HETATM    7  O2  UNL     1       2.911   0.229   0.718  1.00  0.00    -0.396 OA
HETATM    8  C6  UNL     1       3.896   0.125  -0.287  1.00  0.00     0.004 C 
HETATM    9  H1  UNL     1      -3.526   0.526   1.494  1.00  0.00     0.030 H 
HETATM   10  H2  UNL     1      -3.414   1.170  -0.193  1.00  0.00     0.030 H 
HETATM   11  H3  UNL     1      -4.617  -0.115   0.204  1.00  0.00     0.030 H 
HETATM   12  H4  UNL     1      -2.669  -1.114  -0.992  1.00  0.00     0.073 H 
HETATM   13  H5  UNL     1      -2.809  -1.721   0.679  1.00  0.00     0.073 H 
HETATM   14  H6  UNL     1      -1.186   0.960  -1.154  1.00  0.00     0.074 H 
HETATM   15  H7  UNL     1      -0.417  -0.655  -1.445  1.00  0.00     0.074 H 
HETATM   16  H8  UNL     1       0.583   1.493   0.533  1.00  0.00     0.039 H 
HETATM   17  H9  UNL     1       1.221   1.223  -1.127  1.00  0.00     0.039 H 
HETATM   18  H10 UNL     1       1.838  -1.164  -0.475  1.00  0.00     0.074 H 
HETATM   19  H11 UNL     1       1.226  -0.839   1.167  1.00  0.00     0.074 H 
HETATM   20  H12 UNL     1       4.184  -0.938  -0.448  1.00  0.00     0.066 H 
HETATM   21  H13 UNL     1       3.556   0.583  -1.242  1.00  0.00     0.066 H 
HETATM   22  H14 UNL     1       4.801   0.673   0.046  1.00  0.00     0.066 H 
TER      23      UNL     1 
ENDMDL
