REMARK FAKE_HEAD_ATOM=C4_O2
REMARK REAL_HEAD_ATOM=C3_C2
REMARK DUMMY_ATOM=C4_H6_H7_H8_O2
REMARK TORSION=O3_C3_C2_O1
REMARK TORSION=C3_C2_O1_C1
MODEL 0
HETATM    1  C1  UNL     1       2.176   0.671  -0.356  1.00  0.00     0.005 C 
HETATM    2  O1  UNL     1       1.854  -0.703  -0.359  1.00  0.00    -0.386 OA
HETATM    3  C2  UNL     1       0.915  -0.987   0.661  1.00  0.00     0.099 C 
HETATM    4  C3  UNL     1      -0.480  -0.800   0.152  1.00  0.00     0.282 C 
HETATM    5  O2  UNL     1      -1.225   0.304   0.574  1.00  0.00    -0.325 OA
HETATM    6  C4  UNL     1      -2.547   0.557   0.114  1.00  0.00     0.013 C 
HETATM    7  O3  UNL     1      -0.959  -1.624  -0.674  1.00  0.00    -0.263 OA
HETATM    8  H1  UNL     1       1.269   1.303  -0.484  1.00  0.00     0.066 H 
HETATM    9  H2  UNL     1       2.851   0.877  -1.212  1.00  0.00     0.066 H 
HETATM   10  H3  UNL     1       2.717   0.950   0.575  1.00  0.00     0.066 H 
HETATM   11  H4  UNL     1       1.077  -0.387   1.587  1.00  0.00     0.089 H 
HETATM   12  H5  UNL     1       1.038  -2.050   0.957  1.00  0.00     0.089 H 
HETATM   13  H6  UNL     1      -3.214  -0.288   0.389  1.00  0.00     0.067 H 
HETATM   14  H7  UNL     1      -2.546   0.691  -0.989  1.00  0.00     0.067 H 
HETATM   15  H8  UNL     1      -2.927   1.485   0.589  1.00  0.00     0.067 H 
TER      16      UNL     1 
ENDMDL
