REMARK FAKE_HEAD_ATOM=C5_O1
REMARK REAL_HEAD_ATOM=C2_C3
REMARK DUMMY_ATOM=C5_H6_H7_H8_O1
REMARK TORSION=C1_C2_C3_C4
MODEL 0
HETATM    1  C1  UNL     1      -0.663  -1.270   0.573  1.00  0.00    -0.042 C 
HETATM    2  C2  UNL     1      -0.230   0.144   0.183  1.00  0.00     0.092 C 
HETATM    3  C3  UNL     1      -1.392   0.887  -0.317  1.00  0.00    -0.086 C 
HETATM    4  C4  UNL     1      -2.346   1.499  -0.728  1.00  0.00    -0.151 C 
HETATM    5  O1  UNL     1       0.738   0.083  -0.850  1.00  0.00    -0.379 OA
HETATM    6  C5  UNL     1       2.040   0.185  -0.317  1.00  0.00     0.006 C 
HETATM    7  H1  UNL     1      -1.051  -1.818  -0.313  1.00  0.00     0.032 H 
HETATM    8  H2  UNL     1       0.200  -1.833   0.987  1.00  0.00     0.032 H 
HETATM    9  H3  UNL     1      -1.455  -1.231   1.352  1.00  0.00     0.032 H 
HETATM   10  H4  UNL     1       0.127   0.679   1.096  1.00  0.00     0.102 H 
HETATM   11  H5  UNL     1      -3.184   2.036  -1.088  1.00  0.00     0.166 H 
HETATM   12  H6  UNL     1       2.234  -0.604   0.443  1.00  0.00     0.066 H 
HETATM   13  H7  UNL     1       2.771   0.047  -1.140  1.00  0.00     0.066 H 
HETATM   14  H8  UNL     1       2.209   1.194   0.119  1.00  0.00     0.066 H 
TER      15      UNL     1 
ENDMDL
