REMARK FAKE_HEAD_ATOM=C14_O1
REMARK REAL_HEAD_ATOM=C13_C12
REMARK DUMMY_ATOM=C14_H28_H29_H30_O1
REMARK TORSION=H26_C13_C12_C11
REMARK TORSION=C13_C12_C11_C10
REMARK TORSION=C12_C11_C10_C9
REMARK TORSION=C11_C10_C9_C8
REMARK TORSION=C10_C9_C8_C7
REMARK TORSION=C9_C8_C7_C6
REMARK TORSION=C8_C7_C6_C5
REMARK TORSION=C7_C6_C5_C4
REMARK TORSION=C6_C5_C4_C3
REMARK TORSION=C5_C4_C3_C2
REMARK TORSION=C4_C3_C2_C1
MODEL 0
HETATM    1  C1  UNL     1      -6.158   1.824   0.780  1.00  0.00    -0.077 C 
HETATM    2  C2  UNL     1      -4.636   1.926   0.676  1.00  0.00    -0.069 C 
HETATM    3  C3  UNL     1      -3.939   0.560   0.777  1.00  0.00    -0.065 C 
HETATM    4  C4  UNL     1      -4.098  -0.279  -0.502  1.00  0.00    -0.065 C 
HETATM    5  C5  UNL     1      -3.487  -1.687  -0.376  1.00  0.00    -0.065 C 
HETATM    6  C6  UNL     1      -1.967  -1.717  -0.134  1.00  0.00    -0.065 C 
HETATM    7  C7  UNL     1      -1.168  -1.047  -1.265  1.00  0.00    -0.065 C 
HETATM    8  C8  UNL     1       0.339  -1.338  -1.179  1.00  0.00    -0.065 C 
HETATM    9  C9  UNL     1       1.009  -0.631   0.012  1.00  0.00    -0.065 C 
HETATM   10  C10 UNL     1       2.526  -0.875   0.066  1.00  0.00    -0.065 C 
HETATM   11  C11 UNL     1       3.300  -0.003  -0.938  1.00  0.00    -0.063 C 
HETATM   12  C12 UNL     1       4.809  -0.302  -0.944  1.00  0.00    -0.045 C 
HETATM   13  C13 UNL     1       5.532   0.145   0.331  1.00  0.00     0.019 C 
HETATM   14  O1  UNL     1       5.354   1.533   0.522  1.00  0.00    -0.396 OA
HETATM   15  C14 UNL     1       5.988   1.926   1.718  1.00  0.00     0.004 C 
HETATM   16  H1  UNL     1      -6.449   1.281   1.704  1.00  0.00     0.027 H 
HETATM   17  H2  UNL     1      -6.582   1.305  -0.104  1.00  0.00     0.027 H 
HETATM   18  H3  UNL     1      -6.593   2.845   0.820  1.00  0.00     0.027 H 
HETATM   19  H4  UNL     1      -4.275   2.566   1.510  1.00  0.00     0.032 H 
HETATM   20  H5  UNL     1      -4.359   2.428  -0.277  1.00  0.00     0.032 H 
HETATM   21  H6  UNL     1      -2.859   0.752   0.951  1.00  0.00     0.033 H 
HETATM   22  H7  UNL     1      -4.331  -0.001   1.654  1.00  0.00     0.033 H 
HETATM   23  H8  UNL     1      -5.178  -0.411  -0.723  1.00  0.00     0.033 H 
HETATM   24  H9  UNL     1      -3.654   0.257  -1.367  1.00  0.00     0.033 H 
HETATM   25  H10 UNL     1      -3.712  -2.253  -1.306  1.00  0.00     0.033 H 
HETATM   26  H11 UNL     1      -3.990  -2.224   0.458  1.00  0.00     0.033 H 
HETATM   27  H12 UNL     1      -1.734  -1.242   0.841  1.00  0.00     0.033 H 
HETATM   28  H13 UNL     1      -1.662  -2.784  -0.057  1.00  0.00     0.033 H 
HETATM   29  H14 UNL     1      -1.328   0.052  -1.246  1.00  0.00     0.033 H 
HETATM   30  H15 UNL     1      -1.536  -1.428  -2.242  1.00  0.00     0.033 H 
HETATM   31  H16 UNL     1       0.801  -0.987  -2.125  1.00  0.00     0.033 H 
HETATM   32  H17 UNL     1       0.507  -2.435  -1.112  1.00  0.00     0.033 H 
HETATM   33  H18 UNL     1       0.572  -1.024   0.955  1.00  0.00     0.033 H 
HETATM   34  H19 UNL     1       0.803   0.462  -0.024  1.00  0.00     0.033 H 
HETATM   35  H20 UNL     1       2.743  -1.952  -0.112  1.00  0.00     0.033 H 
HETATM   36  H21 UNL     1       2.867  -0.629   1.094  1.00  0.00     0.033 H 
HETATM   37  H22 UNL     1       2.921  -0.196  -1.963  1.00  0.00     0.033 H 
HETATM   38  H23 UNL     1       3.126   1.072  -0.717  1.00  0.00     0.033 H 
HETATM   39  H24 UNL     1       5.269   0.224  -1.809  1.00  0.00     0.036 H 
HETATM   40  H25 UNL     1       4.974  -1.391  -1.096  1.00  0.00     0.036 H 
HETATM   41  H26 UNL     1       5.147  -0.437   1.198  1.00  0.00     0.074 H 
HETATM   42  H27 UNL     1       6.614  -0.090   0.206  1.00  0.00     0.074 H 
HETATM   43  H28 UNL     1       5.525   1.429   2.600  1.00  0.00     0.066 H 
HETATM   44  H29 UNL     1       7.081   1.719   1.684  1.00  0.00     0.066 H 
HETATM   45  H30 UNL     1       5.858   3.020   1.844  1.00  0.00     0.066 H 
TER      46      UNL     1 
ENDMDL
