REMARK FAKE_HEAD_ATOM=C5_O1
REMARK REAL_HEAD_ATOM=C4_C3
REMARK DUMMY_ATOM=C5_H6_H7_H8_O1
MODEL 0
HETATM    1  C1  UNL     1      -1.338  -0.195   0.623  1.00  0.00    -0.101 C 
HETATM    2  C2  UNL     1      -2.829  -0.290   0.674  1.00  0.00    -0.059 C 
HETATM    3  C3  UNL     1      -0.713   0.184  -0.495  1.00  0.00    -0.014 C 
HETATM    4  C4  UNL     1       0.751   0.287  -0.575  1.00  0.00     0.282 C 
HETATM    5  O1  UNL     1       1.546  -0.014   0.537  1.00  0.00    -0.323 OA
HETATM    6  C5  UNL     1       2.966   0.070   0.510  1.00  0.00     0.013 C 
HETATM    7  O2  UNL     1       1.283   0.650  -1.660  1.00  0.00    -0.260 OA
HETATM    8  H1  UNL     1      -0.774  -0.440   1.515  1.00  0.00     0.076 H 
HETATM    9  H2  UNL     1      -3.188  -1.029  -0.074  1.00  0.00     0.032 H 
HETATM   10  H3  UNL     1      -3.149  -0.619   1.685  1.00  0.00     0.032 H 
HETATM   11  H4  UNL     1      -3.280   0.702   0.460  1.00  0.00     0.032 H 
HETATM   12  H5  UNL     1      -1.296   0.425  -1.377  1.00  0.00     0.092 H 
HETATM   13  H6  UNL     1       3.373  -0.624  -0.255  1.00  0.00     0.067 H 
HETATM   14  H7  UNL     1       3.366  -0.216   1.504  1.00  0.00     0.067 H 
HETATM   15  H8  UNL     1       3.281   1.110   0.280  1.00  0.00     0.067 H 
TER      16      UNL     1 
ENDMDL
