REMARK FAKE_HEAD_ATOM=C5_O1
REMARK REAL_HEAD_ATOM=C4_C3
REMARK DUMMY_ATOM=C5_H11_H12_H13_O1
REMARK TORSION=H9_C4_C3_C2
REMARK TORSION=C4_C3_C2_N1
REMARK TORSION=C3_C2_N1_C1
MODEL 0
HETATM    1  C1  UNL     1      -2.704   1.077  -0.390  1.00  0.00     0.093 C 
HETATM    2  N1  UNL     1      -1.364   0.507  -0.539  1.00  0.00     0.079 N 
HETATM    3  C2  UNL     1      -1.227  -0.698   0.289  1.00  0.00     0.113 C 
HETATM    4  C3  UNL     1       0.021  -1.502  -0.107  1.00  0.00    -0.021 C 
HETATM    5  C4  UNL     1       1.335  -0.801   0.253  1.00  0.00     0.021 C 
HETATM    6  O1  UNL     1       1.596   0.234  -0.673  1.00  0.00    -0.396 OA
HETATM    7  C5  UNL     1       2.779   0.906  -0.302  1.00  0.00     0.004 C 
HETATM    8  H1  UNL     1      -2.922   1.306   0.676  1.00  0.00     0.071 H 
HETATM    9  H2  UNL     1      -2.770   2.019  -0.974  1.00  0.00     0.071 H 
HETATM   10  H3  UNL     1      -3.468   0.374  -0.787  1.00  0.00     0.071 H 
HETATM   11  H4  UNL     1      -0.691   1.224  -0.182  1.00  0.00     0.315 HD
HETATM   12  H5  UNL     1      -1.180  -0.427   1.368  1.00  0.00     0.079 H 
HETATM   13  H6  UNL     1      -2.107  -1.364   0.143  1.00  0.00     0.079 H 
HETATM   14  H7  UNL     1      -0.013  -2.474   0.432  1.00  0.00     0.038 H 
HETATM   15  H8  UNL     1      -0.004  -1.725  -1.197  1.00  0.00     0.038 H 
HETATM   16  H9  UNL     1       2.148  -1.561   0.208  1.00  0.00     0.074 H 
HETATM   17  H10 UNL     1       1.269  -0.410   1.294  1.00  0.00     0.074 H 
HETATM   18  H11 UNL     1       2.982   1.700  -1.050  1.00  0.00     0.066 H 
HETATM   19  H12 UNL     1       2.666   1.399   0.689  1.00  0.00     0.066 H 
HETATM   20  H13 UNL     1       3.652   0.216  -0.298  1.00  0.00     0.066 H 
TER      21      UNL     1 
ENDMDL
