REMARK FAKE_HEAD_ATOM=C15_O1
REMARK REAL_HEAD_ATOM=C14_C13
REMARK DUMMY_ATOM=C15_H30_H31_H32_O1
REMARK TORSION=H28_C14_C13_C12
REMARK TORSION=C14_C13_C12_C11
REMARK TORSION=C13_C12_C11_C10
REMARK TORSION=C12_C11_C10_C9
REMARK TORSION=C11_C10_C9_C8
REMARK TORSION=C10_C9_C8_C7
REMARK TORSION=C9_C8_C7_C6
REMARK TORSION=C8_C7_C6_C5
REMARK TORSION=C7_C6_C5_C4
REMARK TORSION=C6_C5_C4_C3
REMARK TORSION=C5_C4_C3_C2
REMARK TORSION=C4_C3_C2_C1
MODEL 0
HETATM    1  C1  UNL     1      -7.161   0.191  -0.177  1.00  0.00    -0.077 C 
HETATM    2  C2  UNL     1      -6.536   1.189   0.795  1.00  0.00    -0.069 C 
HETATM    3  C3  UNL     1      -5.000   1.111   0.832  1.00  0.00    -0.065 C 
HETATM    4  C4  UNL     1      -4.466  -0.205   1.439  1.00  0.00    -0.065 C 
HETATM    5  C5  UNL     1      -4.087  -1.260   0.376  1.00  0.00    -0.065 C 
HETATM    6  C6  UNL     1      -2.583  -1.290   0.053  1.00  0.00    -0.065 C 
HETATM    7  C7  UNL     1      -2.104  -0.018  -0.665  1.00  0.00    -0.065 C 
HETATM    8  C8  UNL     1      -0.665  -0.140  -1.189  1.00  0.00    -0.065 C 
HETATM    9  C9  UNL     1       0.376  -0.156  -0.059  1.00  0.00    -0.065 C 
HETATM   10  C10 UNL     1       1.801  -0.144  -0.625  1.00  0.00    -0.065 C 
HETATM   11  C11 UNL     1       2.841  -0.170   0.501  1.00  0.00    -0.065 C 
HETATM   12  C12 UNL     1       4.266  -0.157  -0.065  1.00  0.00    -0.063 C 
HETATM   13  C13 UNL     1       5.306  -0.183   1.063  1.00  0.00    -0.045 C 
HETATM   14  C14 UNL     1       6.735  -0.194   0.517  1.00  0.00     0.019 C 
HETATM   15  O1  UNL     1       6.994   1.017  -0.163  1.00  0.00    -0.396 OA
HETATM   16  C15 UNL     1       8.304   0.990  -0.682  1.00  0.00     0.004 C 
HETATM   17  H1  UNL     1      -6.725   0.312  -1.191  1.00  0.00     0.027 H 
HETATM   18  H2  UNL     1      -8.254   0.372  -0.239  1.00  0.00     0.027 H 
HETATM   19  H3  UNL     1      -7.001  -0.849   0.177  1.00  0.00     0.027 H 
HETATM   20  H4  UNL     1      -6.950   1.025   1.814  1.00  0.00     0.032 H 
HETATM   21  H5  UNL     1      -6.827   2.214   0.478  1.00  0.00     0.032 H 
HETATM   22  H6  UNL     1      -4.593   1.285  -0.187  1.00  0.00     0.033 H 
HETATM   23  H7  UNL     1      -4.641   1.952   1.463  1.00  0.00     0.033 H 
HETATM   24  H8  UNL     1      -5.226  -0.638   2.126  1.00  0.00     0.033 H 
HETATM   25  H9  UNL     1      -3.583   0.021   2.077  1.00  0.00     0.033 H 
HETATM   26  H10 UNL     1      -4.360  -2.262   0.772  1.00  0.00     0.033 H 
HETATM   27  H11 UNL     1      -4.668  -1.123  -0.561  1.00  0.00     0.033 H 
HETATM   28  H12 UNL     1      -2.391  -2.169  -0.601  1.00  0.00     0.033 H 
HETATM   29  H13 UNL     1      -2.011  -1.439   0.994  1.00  0.00     0.033 H 
HETATM   30  H14 UNL     1      -2.768   0.175  -1.536  1.00  0.00     0.033 H 
HETATM   31  H15 UNL     1      -2.174   0.855   0.018  1.00  0.00     0.033 H 
HETATM   32  H16 UNL     1      -0.466   0.733  -1.849  1.00  0.00     0.033 H 
HETATM   33  H17 UNL     1      -0.565  -1.059  -1.808  1.00  0.00     0.033 H 
HETATM   34  H18 UNL     1       0.231   0.737   0.589  1.00  0.00     0.033 H 
HETATM   35  H19 UNL     1       0.243  -1.069   0.559  1.00  0.00     0.033 H 
HETATM   36  H20 UNL     1       1.944  -1.032  -1.279  1.00  0.00     0.033 H 
HETATM   37  H21 UNL     1       1.946   0.774  -1.238  1.00  0.00     0.033 H 
HETATM   38  H22 UNL     1       2.697   0.718   1.156  1.00  0.00     0.033 H 
HETATM   39  H23 UNL     1       2.697  -1.088   1.114  1.00  0.00     0.033 H 
HETATM   40  H24 UNL     1       4.410  -1.046  -0.718  1.00  0.00     0.033 H 
HETATM   41  H25 UNL     1       4.407   0.759  -0.679  1.00  0.00     0.033 H 
HETATM   42  H26 UNL     1       5.174   0.706   1.719  1.00  0.00     0.036 H 
HETATM   43  H27 UNL     1       5.156  -1.095   1.682  1.00  0.00     0.036 H 
HETATM   44  H28 UNL     1       6.854  -1.070  -0.162  1.00  0.00     0.074 H 
HETATM   45  H29 UNL     1       7.430  -0.309   1.380  1.00  0.00     0.074 H 
HETATM   46  H30 UNL     1       8.498   1.950  -1.203  1.00  0.00     0.066 H 
HETATM   47  H31 UNL     1       8.425   0.173  -1.428  1.00  0.00     0.066 H 
HETATM   48  H32 UNL     1       9.059   0.890   0.130  1.00  0.00     0.066 H 
TER      49      UNL     1 
ENDMDL
