REMARK FAKE_HEAD_ATOM=C5_O2
REMARK REAL_HEAD_ATOM=C4_C3
REMARK DUMMY_ATOM=C5_H10_H8_H9_O2
REMARK TORSION=H6_C4_C3_C1
REMARK TORSION=C3_C1_C2_O1
REMARK TORSION=C1_C2_O1_H4
MODEL 0
HETATM    1  C1  UNL     1      -1.106  -1.202  -0.020  1.00  0.00    -0.082 C 
HETATM    2  C2  UNL     1      -1.822  -0.162  -0.837  1.00  0.00     0.032 C 
HETATM    3  O1  UNL     1      -2.520   0.709   0.008  1.00  0.00    -0.397 OA
HETATM    4  C3  UNL     1      -0.080  -0.936   0.808  1.00  0.00    -0.082 C 
HETATM    5  C4  UNL     1       0.498   0.440   1.026  1.00  0.00     0.034 C 
HETATM    6  O2  UNL     1       1.078   0.943  -0.163  1.00  0.00    -0.392 OA
HETATM    7  C5  UNL     1       2.403   0.474  -0.296  1.00  0.00     0.004 C 
HETATM    8  H1  UNL     1      -1.435  -2.233  -0.114  1.00  0.00     0.079 H 
HETATM    9  H2  UNL     1      -1.096   0.401  -1.463  1.00  0.00     0.080 H 
HETATM   10  H3  UNL     1      -2.542  -0.672  -1.514  1.00  0.00     0.080 H 
HETATM   11  H4  UNL     1      -2.950   1.380  -0.583  1.00  0.00     0.209 HD
HETATM   12  H5  UNL     1       0.360  -1.761   1.361  1.00  0.00     0.079 H 
HETATM   13  H6  UNL     1       1.220   0.416   1.876  1.00  0.00     0.080 H 
HETATM   14  H7  UNL     1      -0.313   1.128   1.342  1.00  0.00     0.080 H 
HETATM   15  H8  UNL     1       2.802   0.817  -1.272  1.00  0.00     0.066 H 
HETATM   16  H9  UNL     1       2.446  -0.638  -0.287  1.00  0.00     0.066 H 
HETATM   17  H10 UNL     1       3.055   0.895   0.501  1.00  0.00     0.066 H 
TER      18      UNL     1 
ENDMDL
