REMARK FAKE_HEAD_ATOM=C4_O1
REMARK REAL_HEAD_ATOM=C3_C2
REMARK DUMMY_ATOM=C4_H6_H7_H8_O1
REMARK TORSION=H4_C3_C2_C5
REMARK TORSION=C3_C2_C5_O2
REMARK TORSION=C2_C5_O2_H11
MODEL 0
HETATM    1  C1  UNL     1      -1.252  -0.873   1.018  1.00  0.00    -0.065 C 
HETATM    2  C2  UNL     1      -0.697  -0.152  -0.229  1.00  0.00    -0.005 C 
HETATM    3  C3  UNL     1       0.837  -0.358  -0.329  1.00  0.00     0.027 C 
HETATM    4  O1  UNL     1       1.483   0.125   0.833  1.00  0.00    -0.395 OA
HETATM    5  C4  UNL     1       2.875  -0.061   0.708  1.00  0.00     0.004 C 
HETATM    6  C5  UNL     1      -1.048   1.357  -0.175  1.00  0.00     0.025 C 
HETATM    7  O2  UNL     1      -0.534   1.957   0.983  1.00  0.00    -0.400 OA
HETATM    8  C6  UNL     1      -1.357  -0.762  -1.483  1.00  0.00    -0.065 C 
HETATM    9  H1  UNL     1      -2.355  -0.749   1.083  1.00  0.00     0.028 H 
HETATM   10  H2  UNL     1      -1.024  -1.960   0.975  1.00  0.00     0.028 H 
HETATM   11  H3  UNL     1      -0.805  -0.465   1.950  1.00  0.00     0.028 H 
HETATM   12  H4  UNL     1       1.044  -1.446  -0.456  1.00  0.00     0.075 H 
HETATM   13  H5  UNL     1       1.212   0.177  -1.233  1.00  0.00     0.075 H 
HETATM   14  H6  UNL     1       3.365   0.318   1.628  1.00  0.00     0.066 H 
HETATM   15  H7  UNL     1       3.131  -1.140   0.611  1.00  0.00     0.066 H 
HETATM   16  H8  UNL     1       3.283   0.516  -0.151  1.00  0.00     0.066 H 
HETATM   17  H9  UNL     1      -2.155   1.485  -0.189  1.00  0.00     0.075 H 
HETATM   18  H10 UNL     1      -0.634   1.871  -1.072  1.00  0.00     0.075 H 
HETATM   19  H11 UNL     1      -0.792   2.914   0.937  1.00  0.00     0.209 HD
HETATM   20  H12 UNL     1      -0.982  -0.267  -2.405  1.00  0.00     0.028 H 
HETATM   21  H13 UNL     1      -2.461  -0.639  -1.448  1.00  0.00     0.028 H 
HETATM   22  H14 UNL     1      -1.134  -1.849  -1.557  1.00  0.00     0.028 H 
TER      23      UNL     1 
ENDMDL
