REMARK FAKE_HEAD_ATOM=C12_O1
REMARK REAL_HEAD_ATOM=C11_C10
REMARK DUMMY_ATOM=C12_H23_H24_H25_O1
REMARK TORSION=H22_C11_C10_C9
REMARK TORSION=C11_C10_C9_C8
REMARK TORSION=C10_C9_C8_C7
REMARK TORSION=C9_C8_C7_C6
REMARK TORSION=C8_C7_C6_C5
REMARK TORSION=C7_C6_C5_C4
REMARK TORSION=C6_C5_C4_C3
REMARK TORSION=C5_C4_C3_C2
REMARK TORSION=C4_C3_C2_C1
MODEL 0
HETATM    1  C1  UNL     1       6.469   0.934   0.890  1.00  0.00    -0.077 C 
HETATM    2  C2  UNL     1       5.735  -0.400   1.019  1.00  0.00    -0.069 C 
HETATM    3  C3  UNL     1       4.212  -0.260   0.869  1.00  0.00    -0.065 C 
HETATM    4  C4  UNL     1       3.786   0.015  -0.584  1.00  0.00    -0.065 C 
HETATM    5  C5  UNL     1       2.264   0.170  -0.732  1.00  0.00    -0.065 C 
HETATM    6  C6  UNL     1       1.511  -1.160  -0.552  1.00  0.00    -0.065 C 
HETATM    7  C7  UNL     1       0.036  -1.066  -0.973  1.00  0.00    -0.065 C 
HETATM    8  C8  UNL     1      -0.795  -0.193  -0.021  1.00  0.00    -0.065 C 
HETATM    9  C9  UNL     1      -2.281  -0.229  -0.400  1.00  0.00    -0.063 C 
HETATM   10  C10 UNL     1      -3.112   0.650   0.545  1.00  0.00    -0.041 C 
HETATM   11  C11 UNL     1      -4.601   0.641   0.159  1.00  0.00     0.034 C 
HETATM   12  O1  UNL     1      -5.117  -0.669   0.336  1.00  0.00    -0.391 OA
HETATM   13  C12 UNL     1      -5.975  -1.014  -0.729  1.00  0.00     0.004 C 
HETATM   14  C13 UNL     1      -5.379   1.610   1.053  1.00  0.00    -0.052 C 
HETATM   15  H1  UNL     1       7.543   0.788   1.129  1.00  0.00     0.027 H 
HETATM   16  H2  UNL     1       6.397   1.326  -0.145  1.00  0.00     0.027 H 
HETATM   17  H3  UNL     1       6.049   1.679   1.599  1.00  0.00     0.027 H 
HETATM   18  H4  UNL     1       5.951  -0.818   2.026  1.00  0.00     0.032 H 
HETATM   19  H5  UNL     1       6.130  -1.118   0.267  1.00  0.00     0.032 H 
HETATM   20  H6  UNL     1       3.755  -1.214   1.208  1.00  0.00     0.033 H 
HETATM   21  H7  UNL     1       3.841   0.549   1.535  1.00  0.00     0.033 H 
HETATM   22  H8  UNL     1       4.253   0.962  -0.928  1.00  0.00     0.033 H 
HETATM   23  H9  UNL     1       4.148  -0.800  -1.248  1.00  0.00     0.033 H 
HETATM   24  H10 UNL     1       1.899   0.921   0.001  1.00  0.00     0.033 H 
HETATM   25  H11 UNL     1       2.059   0.566  -1.751  1.00  0.00     0.033 H 
HETATM   26  H12 UNL     1       1.996  -1.939  -1.180  1.00  0.00     0.033 H 
HETATM   27  H13 UNL     1       1.568  -1.494   0.506  1.00  0.00     0.033 H 
HETATM   28  H14 UNL     1      -0.035  -0.669  -2.010  1.00  0.00     0.033 H 
HETATM   29  H15 UNL     1      -0.385  -2.095  -0.978  1.00  0.00     0.033 H 
HETATM   30  H16 UNL     1      -0.674  -0.562   1.021  1.00  0.00     0.033 H 
HETATM   31  H17 UNL     1      -0.438   0.858  -0.070  1.00  0.00     0.033 H 
HETATM   32  H18 UNL     1      -2.402   0.135  -1.444  1.00  0.00     0.033 H 
HETATM   33  H19 UNL     1      -2.646  -1.278  -0.348  1.00  0.00     0.033 H 
HETATM   34  H20 UNL     1      -2.997   0.283   1.589  1.00  0.00     0.036 H 
HETATM   35  H21 UNL     1      -2.727   1.692   0.498  1.00  0.00     0.036 H 
HETATM   36  H22 UNL     1      -4.675   1.014  -0.893  1.00  0.00     0.082 H 
HETATM   37  H23 UNL     1      -6.810  -0.286  -0.829  1.00  0.00     0.066 H 
HETATM   38  H24 UNL     1      -6.418  -2.009  -0.519  1.00  0.00     0.066 H 
HETATM   39  H25 UNL     1      -5.408  -1.090  -1.683  1.00  0.00     0.066 H 
HETATM   40  H26 UNL     1      -6.451   1.618   0.763  1.00  0.00     0.030 H 
HETATM   41  H27 UNL     1      -5.303   1.303   2.119  1.00  0.00     0.030 H 
HETATM   42  H28 UNL     1      -4.982   2.642   0.944  1.00  0.00     0.030 H 
TER      43      UNL     1 
ENDMDL
