REMARK FAKE_HEAD_ATOM=C4_O2
REMARK REAL_HEAD_ATOM=C3_C2
REMARK DUMMY_ATOM=C4_H10_H8_H9_O2
REMARK TORSION=H6_C3_C2_C1
REMARK TORSION=C3_C2_C1_O1
REMARK TORSION=C3_C1_O1_H1
MODEL 0
HETATM    1  O1  UNL     1      -3.060   0.181  -0.361  1.00  0.00    -0.401 OA
HETATM    2  C1  UNL     1      -1.757   0.225   0.149  1.00  0.00     0.019 C 
HETATM    3  C2  UNL     1      -0.838  -0.626  -0.729  1.00  0.00    -0.026 C 
HETATM    4  C3  UNL     1       0.599  -0.641  -0.205  1.00  0.00     0.021 C 
HETATM    5  O2  UNL     1       1.150   0.657  -0.290  1.00  0.00    -0.396 OA
HETATM    6  C4  UNL     1       2.467   0.639   0.213  1.00  0.00     0.004 C 
HETATM    7  H1  UNL     1      -3.611   0.744   0.243  1.00  0.00     0.209 HD
HETATM    8  H2  UNL     1      -1.397   1.279   0.159  1.00  0.00     0.074 H 
HETATM    9  H3  UNL     1      -1.750  -0.171   1.190  1.00  0.00     0.074 H 
HETATM   10  H4  UNL     1      -1.223  -1.669  -0.751  1.00  0.00     0.039 H 
HETATM   11  H5  UNL     1      -0.848  -0.232  -1.769  1.00  0.00     0.039 H 
HETATM   12  H6  UNL     1       1.184  -1.352  -0.832  1.00  0.00     0.074 H 
HETATM   13  H7  UNL     1       0.595  -1.008   0.848  1.00  0.00     0.074 H 
HETATM   14  H8  UNL     1       2.890   1.661   0.130  1.00  0.00     0.066 H 
HETATM   15  H9  UNL     1       2.483   0.354   1.288  1.00  0.00     0.066 H 
HETATM   16  H10 UNL     1       3.116  -0.042  -0.381  1.00  0.00     0.066 H 
TER      17      UNL     1 
ENDMDL
