REMARK FAKE_HEAD_ATOM=C6_O1
REMARK REAL_HEAD_ATOM=C5_C2
REMARK DUMMY_ATOM=C6_H10_H11_H12_O1
REMARK TORSION=H8_C5_C2_C3
REMARK TORSION=C5_C2_C3_C4
MODEL 0
HETATM    1  C1  UNL     1      -1.532  -1.575  -0.445  1.00  0.00    -0.068 C 
HETATM    2  C2  UNL     1      -0.745  -0.388   0.121  1.00  0.00    -0.021 C 
HETATM    3  C3  UNL     1      -1.286   0.899  -0.456  1.00  0.00    -0.106 C 
HETATM    4  C4  UNL     1      -1.789   1.866   0.317  1.00  0.00    -0.124 C 
HETATM    5  C5  UNL     1       0.750  -0.526  -0.199  1.00  0.00     0.025 C 
HETATM    6  O1  UNL     1       1.460   0.534   0.409  1.00  0.00    -0.395 OA
HETATM    7  C6  UNL     1       2.830   0.419   0.096  1.00  0.00     0.004 C 
HETATM    8  H1  UNL     1      -2.609  -1.471  -0.195  1.00  0.00     0.028 H 
HETATM    9  H2  UNL     1      -1.423  -1.629  -1.550  1.00  0.00     0.028 H 
HETATM   10  H3  UNL     1      -1.164  -2.525  -0.001  1.00  0.00     0.028 H 
HETATM   11  H4  UNL     1      -0.866  -0.399   1.228  1.00  0.00     0.048 H 
HETATM   12  H5  UNL     1      -1.259   1.048  -1.532  1.00  0.00     0.076 H 
HETATM   13  H6  UNL     1      -1.830   1.759   1.397  1.00  0.00     0.066 H 
HETATM   14  H7  UNL     1      -2.165   2.779  -0.133  1.00  0.00     0.066 H 
HETATM   15  H8  UNL     1       0.889  -0.513  -1.305  1.00  0.00     0.075 H 
HETATM   16  H9  UNL     1       1.107  -1.504   0.200  1.00  0.00     0.075 H 
HETATM   17  H10 UNL     1       3.254  -0.535   0.481  1.00  0.00     0.066 H 
HETATM   18  H11 UNL     1       3.001   0.506  -1.000  1.00  0.00     0.066 H 
HETATM   19  H12 UNL     1       3.376   1.251   0.587  1.00  0.00     0.066 H 
TER      20      UNL     1 
ENDMDL
