REMARK FAKE_HEAD_ATOM=C1_O1
REMARK REAL_HEAD_ATOM=C2_C3
REMARK DUMMY_ATOM=C1_H1_H2_H3_O1
REMARK TORSION=H4_C2_C3_C4
REMARK TORSION=C2_C3_C4_C6
MODEL 0
HETATM    1  C1  UNL     1       3.179  -0.599  -0.413  1.00  0.00     0.004 C 
HETATM    2  O1  UNL     1       2.019  -0.845   0.348  1.00  0.00    -0.396 OA
HETATM    3  C2  UNL     1       0.943  -0.102  -0.185  1.00  0.00     0.022 C 
HETATM    4  C3  UNL     1      -0.312  -0.381   0.642  1.00  0.00    -0.026 C 
HETATM    5  C4  UNL     1      -1.506   0.368   0.092  1.00  0.00    -0.091 C 
HETATM    6  C5  UNL     1      -2.581  -0.363  -0.666  1.00  0.00    -0.055 C 
HETATM    7  C6  UNL     1      -1.622   1.690   0.290  1.00  0.00    -0.119 C 
HETATM    8  H1  UNL     1       3.469   0.475  -0.372  1.00  0.00     0.066 H 
HETATM    9  H2  UNL     1       4.015  -1.188   0.016  1.00  0.00     0.066 H 
HETATM   10  H3  UNL     1       3.046  -0.926  -1.469  1.00  0.00     0.066 H 
HETATM   11  H4  UNL     1       1.166   0.990  -0.144  1.00  0.00     0.074 H 
HETATM   12  H5  UNL     1       0.745  -0.401  -1.240  1.00  0.00     0.074 H 
HETATM   13  H6  UNL     1      -0.508  -1.475   0.636  1.00  0.00     0.042 H 
HETATM   14  H7  UNL     1      -0.140  -0.084   1.700  1.00  0.00     0.042 H 
HETATM   15  H8  UNL     1      -2.683   0.069  -1.684  1.00  0.00     0.033 H 
HETATM   16  H9  UNL     1      -3.550  -0.266  -0.131  1.00  0.00     0.033 H 
HETATM   17  H10 UNL     1      -2.342  -1.442  -0.769  1.00  0.00     0.033 H 
HETATM   18  H11 UNL     1      -0.865   2.239   0.842  1.00  0.00     0.067 H 
HETATM   19  H12 UNL     1      -2.477   2.237  -0.096  1.00  0.00     0.067 H 
TER      20      UNL     1 
ENDMDL
