REMARK FAKE_HEAD_ATOM=C6_O2
REMARK REAL_HEAD_ATOM=C4_C3
REMARK DUMMY_ATOM=C6_H12_H13_H14_O2
REMARK TORSION=H8_C4_C5_O1
REMARK TORSION=C4_C5_O1_H11
REMARK TORSION=H8_C4_C3_C2
REMARK TORSION=C4_C3_C2_C1
MODEL 0
HETATM    1  C1  UNL     1       2.855  -0.838  -0.297  1.00  0.00    -0.076 C 
HETATM    2  C2  UNL     1       1.555  -0.052  -0.444  1.00  0.00    -0.066 C 
HETATM    3  C3  UNL     1       0.502  -0.533   0.568  1.00  0.00    -0.039 C 
HETATM    4  C4  UNL     1      -0.871   0.160   0.411  1.00  0.00     0.058 C 
HETATM    5  C5  UNL     1      -0.804   1.644   0.795  1.00  0.00     0.041 C 
HETATM    6  O1  UNL     1      -2.098   2.179   0.820  1.00  0.00    -0.398 OA
HETATM    7  O2  UNL     1      -1.332   0.054  -0.927  1.00  0.00    -0.389 OA
HETATM    8  C6  UNL     1      -2.186  -1.059  -1.076  1.00  0.00     0.005 C 
HETATM    9  H1  UNL     1       3.599  -0.466  -1.032  1.00  0.00     0.027 H 
HETATM   10  H2  UNL     1       2.677  -1.918  -0.489  1.00  0.00     0.027 H 
HETATM   11  H3  UNL     1       3.270  -0.710   0.725  1.00  0.00     0.027 H 
HETATM   12  H4  UNL     1       1.778   1.023  -0.281  1.00  0.00     0.032 H 
HETATM   13  H5  UNL     1       1.177  -0.183  -1.480  1.00  0.00     0.032 H 
HETATM   14  H6  UNL     1       0.880  -0.371   1.601  1.00  0.00     0.036 H 
HETATM   15  H7  UNL     1       0.359  -1.629   0.444  1.00  0.00     0.036 H 
HETATM   16  H8  UNL     1      -1.567  -0.316   1.146  1.00  0.00     0.086 H 
HETATM   17  H9  UNL     1      -0.191   2.203   0.054  1.00  0.00     0.077 H 
HETATM   18  H10 UNL     1      -0.341   1.752   1.802  1.00  0.00     0.077 H 
HETATM   19  H11 UNL     1      -1.997   3.133   1.076  1.00  0.00     0.209 HD
HETATM   20  H12 UNL     1      -2.457  -1.156  -2.147  1.00  0.00     0.066 H 
HETATM   21  H13 UNL     1      -3.126  -0.915  -0.501  1.00  0.00     0.066 H 
HETATM   22  H14 UNL     1      -1.683  -2.003  -0.770  1.00  0.00     0.066 H 
TER      23      UNL     1 
ENDMDL
