REMARK FAKE_HEAD_ATOM=C5_O3
REMARK REAL_HEAD_ATOM=C4_C3
REMARK DUMMY_ATOM=C5_H10_H11_H12_O3
REMARK TORSION=H8_C4_C3_C1
REMARK TORSION=C4_C3_C1_C2
REMARK TORSION=C3_C1_C2_O2
REMARK TORSION=C1_C2_O2_H5
REMARK TORSION=C3_C1_O1_H1
MODEL 0
HETATM    1  O1  UNL     1      -1.081  -0.993   1.190  1.00  0.00    -0.393 OA
HETATM    2  C1  UNL     1      -0.997  -0.684  -0.180  1.00  0.00     0.058 C 
HETATM    3  C2  UNL     1      -2.384  -0.775  -0.841  1.00  0.00     0.041 C 
HETATM    4  O2  UNL     1      -3.280   0.145  -0.276  1.00  0.00    -0.398 OA
HETATM    5  C3  UNL     1      -0.337   0.693  -0.409  1.00  0.00    -0.019 C 
HETATM    6  C4  UNL     1       1.100   0.745   0.118  1.00  0.00     0.021 C 
HETATM    7  O3  UNL     1       1.907  -0.159  -0.608  1.00  0.00    -0.396 OA
HETATM    8  C5  UNL     1       3.222  -0.122  -0.101  1.00  0.00     0.004 C 
HETATM    9  H1  UNL     1      -1.598  -0.270   1.632  1.00  0.00     0.210 HD
HETATM   10  H2  UNL     1      -0.361  -1.459  -0.662  1.00  0.00     0.086 H 
HETATM   11  H3  UNL     1      -2.296  -0.621  -1.942  1.00  0.00     0.077 H 
HETATM   12  H4  UNL     1      -2.788  -1.798  -0.686  1.00  0.00     0.077 H 
HETATM   13  H5  UNL     1      -3.192   0.988  -0.793  1.00  0.00     0.209 HD
HETATM   14  H6  UNL     1      -0.929   1.485   0.099  1.00  0.00     0.040 H 
HETATM   15  H7  UNL     1      -0.326   0.925  -1.497  1.00  0.00     0.040 H 
HETATM   16  H8  UNL     1       1.473   1.787  -0.013  1.00  0.00     0.074 H 
HETATM   17  H9  UNL     1       1.098   0.500   1.205  1.00  0.00     0.074 H 
HETATM   18  H10 UNL     1       3.668   0.891  -0.208  1.00  0.00     0.066 H 
HETATM   19  H11 UNL     1       3.253  -0.451   0.962  1.00  0.00     0.066 H 
HETATM   20  H12 UNL     1       3.847  -0.827  -0.687  1.00  0.00     0.066 H 
TER      21      UNL     1 
ENDMDL
