REMARK FAKE_HEAD_ATOM=C1_O1
REMARK REAL_HEAD_ATOM=C2_C3
REMARK DUMMY_ATOM=C1_H1_H2_H3_O1
MODEL 0
HETATM    1  C1  UNL     1       2.697   0.159   0.373  1.00  0.00     0.004 C 
HETATM    2  O1  UNL     1       1.672  -0.637  -0.179  1.00  0.00    -0.391 OA
HETATM    3  C2  UNL     1       0.406  -0.175   0.259  1.00  0.00     0.038 C 
HETATM    4  C3  UNL     1      -0.132   0.929  -0.648  1.00  0.00    -0.041 C 
HETATM    5  C4  UNL     1      -1.647   0.753  -0.687  1.00  0.00    -0.063 C 
HETATM    6  C5  UNL     1      -1.955  -0.597  -0.046  1.00  0.00    -0.063 C 
HETATM    7  C6  UNL     1      -0.618  -1.293   0.147  1.00  0.00    -0.041 C 
HETATM    8  H1  UNL     1       3.669  -0.177  -0.043  1.00  0.00     0.066 H 
HETATM    9  H2  UNL     1       2.744   0.036   1.478  1.00  0.00     0.066 H 
HETATM   10  H3  UNL     1       2.570   1.232   0.106  1.00  0.00     0.066 H 
HETATM   11  H4  UNL     1       0.412   0.174   1.321  1.00  0.00     0.083 H 
HETATM   12  H5  UNL     1       0.144   1.933  -0.256  1.00  0.00     0.036 H 
HETATM   13  H6  UNL     1       0.282   0.817  -1.675  1.00  0.00     0.036 H 
HETATM   14  H7  UNL     1      -2.010   0.776  -1.739  1.00  0.00     0.033 H 
HETATM   15  H8  UNL     1      -2.147   1.569  -0.120  1.00  0.00     0.033 H 
HETATM   16  H9  UNL     1      -2.438  -0.441   0.944  1.00  0.00     0.033 H 
HETATM   17  H10 UNL     1      -2.631  -1.204  -0.686  1.00  0.00     0.033 H 
HETATM   18  H11 UNL     1      -0.620  -1.933   1.055  1.00  0.00     0.036 H 
HETATM   19  H12 UNL     1      -0.400  -1.924  -0.745  1.00  0.00     0.036 H 
TER      20      UNL     1 
ENDMDL
