REMARK FAKE_HEAD_ATOM=C1_O1
REMARK REAL_HEAD_ATOM=C2_C3
REMARK DUMMY_ATOM=C1_H1_H2_H3_O1
REMARK TORSION=H5_C2_C3_C4
REMARK TORSION=C2_C3_C4_O2
REMARK TORSION=C3_C4_O2_C5
MODEL 0
HETATM    1  C1  UNL     1      -3.272   0.040  -0.701  1.00  0.00     0.004 C 
HETATM    2  O1  UNL     1      -2.500  -0.725   0.199  1.00  0.00    -0.396 OA
HETATM    3  C2  UNL     1      -1.189  -0.906  -0.304  1.00  0.00     0.021 C 
HETATM    4  C3  UNL     1      -0.241   0.129   0.311  1.00  0.00    -0.025 C 
HETATM    5  C4  UNL     1       1.200  -0.093  -0.147  1.00  0.00     0.021 C 
HETATM    6  O2  UNL     1       2.027   0.884   0.448  1.00  0.00    -0.396 OA
HETATM    7  C5  UNL     1       3.359   0.687   0.029  1.00  0.00     0.004 C 
HETATM    8  H1  UNL     1      -2.795   1.022  -0.917  1.00  0.00     0.066 H 
HETATM    9  H2  UNL     1      -4.260   0.241  -0.238  1.00  0.00     0.066 H 
HETATM   10  H3  UNL     1      -3.448  -0.521  -1.645  1.00  0.00     0.066 H 
HETATM   11  H4  UNL     1      -1.130  -0.874  -1.419  1.00  0.00     0.074 H 
HETATM   12  H5  UNL     1      -0.851  -1.920  -0.002  1.00  0.00     0.074 H 
HETATM   13  H6  UNL     1      -0.562   1.151   0.016  1.00  0.00     0.039 H 
HETATM   14  H7  UNL     1      -0.288   0.054   1.420  1.00  0.00     0.039 H 
HETATM   15  H8  UNL     1       1.519  -1.116   0.161  1.00  0.00     0.074 H 
HETATM   16  H9  UNL     1       1.236  -0.011  -1.258  1.00  0.00     0.074 H 
HETATM   17  H10 UNL     1       3.741  -0.307   0.351  1.00  0.00     0.066 H 
HETATM   18  H11 UNL     1       3.456   0.803  -1.074  1.00  0.00     0.066 H 
HETATM   19  H12 UNL     1       3.997   1.460   0.504  1.00  0.00     0.066 H 
TER      20      UNL     1 
ENDMDL
