REMARK FAKE_HEAD_ATOM=C6_O1
REMARK REAL_HEAD_ATOM=C2_C1
REMARK DUMMY_ATOM=C6_H10_H8_H9_O1
REMARK TORSION=C1_C2_C3_C4
REMARK TORSION=C2_C3_C4_C5
MODEL 0
HETATM    1  C1  UNL     1      -0.811   1.637  -0.772  1.00  0.00    -0.051 C 
HETATM    2  C2  UNL     1      -0.120   0.458  -0.080  1.00  0.00     0.044 C 
HETATM    3  C3  UNL     1       1.304   0.292  -0.627  1.00  0.00     0.014 C 
HETATM    4  C4  UNL     1       2.012  -0.782   0.081  1.00  0.00    -0.115 C 
HETATM    5  C5  UNL     1       2.592  -1.665   0.663  1.00  0.00    -0.154 C 
HETATM    6  O1  UNL     1      -0.854  -0.729  -0.338  1.00  0.00    -0.390 OA
HETATM    7  C6  UNL     1      -1.673  -1.058   0.763  1.00  0.00     0.004 C 
HETATM    8  H1  UNL     1      -1.833   1.773  -0.362  1.00  0.00     0.030 H 
HETATM    9  H2  UNL     1      -0.888   1.454  -1.866  1.00  0.00     0.030 H 
HETATM   10  H3  UNL     1      -0.240   2.574  -0.600  1.00  0.00     0.030 H 
HETATM   11  H4  UNL     1      -0.034   0.702   1.009  1.00  0.00     0.084 H 
HETATM   12  H5  UNL     1       1.877   1.235  -0.492  1.00  0.00     0.055 H 
HETATM   13  H6  UNL     1       1.274   0.047  -1.710  1.00  0.00     0.055 H 
HETATM   14  H7  UNL     1       3.101  -2.440   1.173  1.00  0.00     0.166 H 
HETATM   15  H8  UNL     1      -2.289  -1.941   0.495  1.00  0.00     0.066 H 
HETATM   16  H9  UNL     1      -1.054  -1.331   1.646  1.00  0.00     0.066 H 
HETATM   17  H10 UNL     1      -2.366  -0.226   1.017  1.00  0.00     0.066 H 
TER      18      UNL     1 
ENDMDL
