REMARK FAKE_HEAD_ATOM=C5_O2
REMARK REAL_HEAD_ATOM=C4_C2
REMARK DUMMY_ATOM=C5_H10_H8_H9_O2
REMARK TORSION=H6_C4_C2_C3
REMARK TORSION=C4_C2_C3_O1
REMARK TORSION=C2_C3_O1_H5
MODEL 0
HETATM    1  C1  UNL     1       0.940  -1.424   0.951  1.00  0.00    -0.115 C 
HETATM    2  C2  UNL     1       0.760  -0.222   0.383  1.00  0.00    -0.043 C 
HETATM    3  C3  UNL     1       1.945   0.518  -0.186  1.00  0.00     0.038 C 
HETATM    4  O1  UNL     1       2.469  -0.199  -1.269  1.00  0.00    -0.397 OA
HETATM    5  C4  UNL     1      -0.620   0.385   0.342  1.00  0.00     0.040 C 
HETATM    6  O2  UNL     1      -1.453  -0.415  -0.471  1.00  0.00    -0.392 OA
HETATM    7  C5  UNL     1      -2.757   0.119  -0.475  1.00  0.00     0.004 C 
HETATM    8  H1  UNL     1       0.102  -1.970   1.375  1.00  0.00     0.067 H 
HETATM    9  H2  UNL     1       1.926  -1.876   1.000  1.00  0.00     0.067 H 
HETATM   10  H3  UNL     1       2.720   0.631   0.605  1.00  0.00     0.081 H 
HETATM   11  H4  UNL     1       1.651   1.535  -0.526  1.00  0.00     0.081 H 
HETATM   12  H5  UNL     1       3.258   0.315  -1.584  1.00  0.00     0.209 HD
HETATM   13  H6  UNL     1      -0.567   1.421  -0.063  1.00  0.00     0.081 H 
HETATM   14  H7  UNL     1      -1.009   0.437   1.385  1.00  0.00     0.081 H 
HETATM   15  H8  UNL     1      -3.199   0.111   0.547  1.00  0.00     0.066 H 
HETATM   16  H9  UNL     1      -2.771   1.149  -0.896  1.00  0.00     0.066 H 
HETATM   17  H10 UNL     1      -3.397  -0.515  -1.121  1.00  0.00     0.066 H 
TER      18      UNL     1 
ENDMDL
