REMARK FAKE_HEAD_ATOM=C5_O2
REMARK REAL_HEAD_ATOM=C4_C1
REMARK DUMMY_ATOM=C5_H10_H8_H9_O2
REMARK TORSION=H6_C4_C1_C2
REMARK TORSION=C4_C1_C2_C3
REMARK TORSION=C4_C1_O1_H1
MODEL 0
HETATM    1  O1  UNL     1      -0.881   1.318   1.142  1.00  0.00    -0.390 OA
HETATM    2  C1  UNL     1      -0.713   0.021   0.624  1.00  0.00     0.071 C 
HETATM    3  C2  UNL     1      -1.787  -0.287  -0.392  1.00  0.00    -0.083 C 
HETATM    4  C3  UNL     1      -3.077  -0.314  -0.048  1.00  0.00    -0.122 C 
HETATM    5  C4  UNL     1       0.689  -0.142   0.021  1.00  0.00     0.046 C 
HETATM    6  O2  UNL     1       1.657   0.120   1.016  1.00  0.00    -0.393 OA
HETATM    7  C5  UNL     1       2.946  -0.023   0.463  1.00  0.00     0.004 C 
HETATM    8  H1  UNL     1      -0.809   1.955   0.383  1.00  0.00     0.210 HD
HETATM    9  H2  UNL     1      -0.810  -0.703   1.463  1.00  0.00     0.092 H 
HETATM   10  H3  UNL     1      -1.516  -0.503  -1.423  1.00  0.00     0.079 H 
HETATM   11  H4  UNL     1      -3.387  -0.110   0.972  1.00  0.00     0.066 H 
HETATM   12  H5  UNL     1      -3.834  -0.542  -0.792  1.00  0.00     0.066 H 
HETATM   13  H6  UNL     1       0.801   0.566  -0.833  1.00  0.00     0.078 H 
HETATM   14  H7  UNL     1       0.792  -1.187  -0.354  1.00  0.00     0.078 H 
HETATM   15  H8  UNL     1       3.116   0.711  -0.356  1.00  0.00     0.066 H 
HETATM   16  H9  UNL     1       3.695   0.181   1.256  1.00  0.00     0.066 H 
HETATM   17  H10 UNL     1       3.117  -1.060   0.099  1.00  0.00     0.066 H 
TER      18      UNL     1 
ENDMDL
