REMARK FAKE_HEAD_ATOM=C1_O1
REMARK REAL_HEAD_ATOM=C2_C3
REMARK DUMMY_ATOM=C1_H1_H2_H3_O1
REMARK TORSION=H4_C2_C3_C4
REMARK TORSION=C2_C3_C4_N1
REMARK TORSION=C2_C3_O2_H12
MODEL 0
HETATM    1  C1  UNL     1       2.990   0.387   0.165  1.00  0.00     0.004 C 
HETATM    2  O1  UNL     1       1.624   0.460   0.507  1.00  0.00    -0.393 OA
HETATM    3  C2  UNL     1       0.950  -0.668  -0.011  1.00  0.00     0.044 C 
HETATM    4  C3  UNL     1      -0.544  -0.584   0.339  1.00  0.00     0.079 C 
HETATM    5  C4  UNL     1      -1.224   0.616  -0.355  1.00  0.00     0.105 C 
HETATM    6  N1  UNL     1      -2.630   0.731   0.035  1.00  0.00    -0.077 N 
HETATM    7  O2  UNL     1      -1.189  -1.787   0.003  1.00  0.00    -0.392 OA
HETATM    8  H1  UNL     1       3.467  -0.519   0.599  1.00  0.00     0.066 H 
HETATM    9  H2  UNL     1       3.130   0.410  -0.939  1.00  0.00     0.066 H 
HETATM   10  H3  UNL     1       3.508   1.273   0.586  1.00  0.00     0.066 H 
HETATM   11  H4  UNL     1       1.359  -1.601   0.441  1.00  0.00     0.078 H 
HETATM   12  H5  UNL     1       1.060  -0.724  -1.119  1.00  0.00     0.078 H 
HETATM   13  H6  UNL     1      -0.628  -0.449   1.439  1.00  0.00     0.088 H 
HETATM   14  H7  UNL     1      -1.155   0.504  -1.460  1.00  0.00     0.079 H 
HETATM   15  H8  UNL     1      -0.695   1.555  -0.077  1.00  0.00     0.079 H 
HETATM   16  H9  UNL     1      -2.708   0.835   1.073  1.00  0.00     0.274 HD
HETATM   17  H10 UNL     1      -3.163  -0.112  -0.279  1.00  0.00     0.274 HD
HETATM   18  H11 UNL     1      -3.042   1.577  -0.421  1.00  0.00     0.274 HD
HETATM   19  H12 UNL     1      -1.113  -1.904  -0.981  1.00  0.00     0.210 HD
TER      20      UNL     1 
ENDMDL
