REMARK FAKE_HEAD_ATOM=C4_O2
REMARK REAL_HEAD_ATOM=C2_C1
REMARK DUMMY_ATOM=C4_H10_H11_H12_O2
REMARK TORSION=H6_C2_C3_O1
REMARK TORSION=C2_C3_O1_H9
REMARK TORSION=H6_C2_C1_N1
MODEL 0
HETATM    1  N1  UNL     1      -1.303  -1.832   0.145  1.00  0.00    -0.077 N 
HETATM    2  C1  UNL     1      -1.310  -0.407   0.480  1.00  0.00     0.105 C 
HETATM    3  C2  UNL     1      -0.071   0.309  -0.091  1.00  0.00     0.081 C 
HETATM    4  C3  UNL     1      -0.155   1.812   0.201  1.00  0.00     0.042 C 
HETATM    5  O1  UNL     1       0.948   2.465  -0.364  1.00  0.00    -0.398 OA
HETATM    6  O2  UNL     1       1.093  -0.215   0.530  1.00  0.00    -0.387 OA
HETATM    7  C4  UNL     1       2.004  -0.693  -0.435  1.00  0.00     0.005 C 
HETATM    8  H1  UNL     1      -1.264  -1.959  -0.892  1.00  0.00     0.274 HD
HETATM    9  H2  UNL     1      -0.484  -2.305   0.592  1.00  0.00     0.274 HD
HETATM   10  H3  UNL     1      -2.180  -2.271   0.506  1.00  0.00     0.274 HD
HETATM   11  H4  UNL     1      -1.337  -0.288   1.586  1.00  0.00     0.079 H 
HETATM   12  H5  UNL     1      -2.232   0.056   0.063  1.00  0.00     0.079 H 
HETATM   13  H6  UNL     1      -0.094   0.183  -1.202  1.00  0.00     0.089 H 
HETATM   14  H7  UNL     1      -1.092   2.226  -0.235  1.00  0.00     0.077 H 
HETATM   15  H8  UNL     1      -0.166   1.981   1.302  1.00  0.00     0.077 H 
HETATM   16  H9  UNL     1       0.844   3.426  -0.138  1.00  0.00     0.209 HD
HETATM   17  H10 UNL     1       2.905  -1.077   0.086  1.00  0.00     0.066 H 
HETATM   18  H11 UNL     1       1.563  -1.533  -1.016  1.00  0.00     0.066 H 
HETATM   19  H12 UNL     1       2.329   0.123  -1.117  1.00  0.00     0.066 H 
TER      20      UNL     1 
ENDMDL
