REMARK FAKE_HEAD_ATOM=C4_O1
REMARK REAL_HEAD_ATOM=C3_C2
REMARK DUMMY_ATOM=C4_H5_H6_H7_O1
REMARK TORSION=O2_C3_C2_C1
MODEL 0
HETATM    1  C1  UNL     1      -1.373   0.730   1.159  1.00  0.00    -0.065 C 
HETATM    2  C2  UNL     1      -0.998   0.448  -0.299  1.00  0.00     0.023 C 
HETATM    3  C3  UNL     1       0.494   0.500  -0.473  1.00  0.00     0.261 C 
HETATM    4  O1  UNL     1       1.307  -0.396   0.227  1.00  0.00    -0.326 OA
HETATM    5  C4  UNL     1       2.724  -0.399   0.107  1.00  0.00     0.013 C 
HETATM    6  O2  UNL     1       1.002   1.353  -1.251  1.00  0.00    -0.265 OA
HETATM    7  C5  UNL     1      -1.538  -0.912  -0.750  1.00  0.00    -0.065 C 
HETATM    8  H1  UNL     1      -2.478   0.737   1.274  1.00  0.00     0.028 H 
HETATM    9  H2  UNL     1      -0.986   1.725   1.466  1.00  0.00     0.028 H 
HETATM   10  H3  UNL     1      -0.949  -0.045   1.833  1.00  0.00     0.028 H 
HETATM   11  H4  UNL     1      -1.467   1.233  -0.934  1.00  0.00     0.054 H 
HETATM   12  H5  UNL     1       3.143  -1.196   0.756  1.00  0.00     0.067 H 
HETATM   13  H6  UNL     1       3.135   0.581   0.430  1.00  0.00     0.067 H 
HETATM   14  H7  UNL     1       3.016  -0.602  -0.945  1.00  0.00     0.067 H 
HETATM   15  H8  UNL     1      -2.646  -0.930  -0.664  1.00  0.00     0.028 H 
HETATM   16  H9  UNL     1      -1.118  -1.731  -0.126  1.00  0.00     0.028 H 
HETATM   17  H10 UNL     1      -1.270  -1.096  -1.812  1.00  0.00     0.028 H 
TER      18      UNL     1 
ENDMDL
