REMARK FAKE_HEAD_ATOM=C5_O2
REMARK REAL_HEAD_ATOM=C4_C3
REMARK DUMMY_ATOM=C5_H12_H13_H14_O2
REMARK TORSION=H10_C4_C3_O1
REMARK TORSION=C4_C3_O1_C2
REMARK TORSION=C3_O1_C2_C1
REMARK TORSION=O1_C2_C1_N1
MODEL 0
HETATM    1  N1  UNL     1      -3.277   0.682  -0.250  1.00  0.00    -0.077 N 
HETATM    2  C1  UNL     1      -2.854  -0.457   0.565  1.00  0.00     0.099 C 
HETATM    3  C2  UNL     1      -1.542  -1.057   0.053  1.00  0.00     0.042 C 
HETATM    4  O1  UNL     1      -0.503  -0.109   0.188  1.00  0.00    -0.387 OA
HETATM    5  C3  UNL     1       0.702  -0.657  -0.303  1.00  0.00     0.039 C 
HETATM    6  C4  UNL     1       1.817   0.368  -0.145  1.00  0.00     0.039 C 
HETATM    7  O2  UNL     1       3.022  -0.179  -0.637  1.00  0.00    -0.394 OA
HETATM    8  C5  UNL     1       4.057   0.768  -0.492  1.00  0.00     0.004 C 
HETATM    9  H1  UNL     1      -2.568   1.448  -0.198  1.00  0.00     0.274 HD
HETATM   10  H2  UNL     1      -4.188   1.042   0.115  1.00  0.00     0.274 HD
HETATM   11  H3  UNL     1      -3.406   0.385  -1.245  1.00  0.00     0.274 HD
HETATM   12  H4  UNL     1      -3.643  -1.241   0.540  1.00  0.00     0.078 H 
HETATM   13  H5  UNL     1      -2.725  -0.134   1.622  1.00  0.00     0.078 H 
HETATM   14  H6  UNL     1      -1.677  -1.356  -1.012  1.00  0.00     0.076 H 
HETATM   15  H7  UNL     1      -1.321  -1.964   0.660  1.00  0.00     0.076 H 
HETATM   16  H8  UNL     1       0.607  -0.909  -1.384  1.00  0.00     0.077 H 
HETATM   17  H9  UNL     1       0.981  -1.572   0.270  1.00  0.00     0.077 H 
HETATM   18  H10 UNL     1       1.536   1.283  -0.717  1.00  0.00     0.077 H 
HETATM   19  H11 UNL     1       1.911   0.621   0.937  1.00  0.00     0.077 H 
HETATM   20  H12 UNL     1       4.997   0.326  -0.882  1.00  0.00     0.066 H 
HETATM   21  H13 UNL     1       4.224   1.023   0.578  1.00  0.00     0.066 H 
HETATM   22  H14 UNL     1       3.848   1.688  -1.083  1.00  0.00     0.066 H 
TER      23      UNL     1 
ENDMDL
