REMARK FAKE_HEAD_ATOM=C10_O1
REMARK REAL_HEAD_ATOM=C9_C8
REMARK DUMMY_ATOM=C10_H19_H20_H21_O1
REMARK TORSION=H18_C9_C8_C7
REMARK TORSION=C9_C8_C7_C6
REMARK TORSION=C8_C7_C6_C5
REMARK TORSION=C7_C6_C5_C4
REMARK TORSION=C6_C5_C4_C3
REMARK TORSION=C5_C4_C3_C2
REMARK TORSION=C4_C3_C2_C1
MODEL 0
HETATM    1  C1  UNL     1       5.129  -0.008  -0.963  1.00  0.00    -0.077 C 
HETATM    2  C2  UNL     1       4.168  -1.191  -0.856  1.00  0.00    -0.069 C 
HETATM    3  C3  UNL     1       3.024  -0.941   0.138  1.00  0.00    -0.065 C 
HETATM    4  C4  UNL     1       2.013   0.095  -0.375  1.00  0.00    -0.065 C 
HETATM    5  C5  UNL     1       0.825   0.227   0.587  1.00  0.00    -0.065 C 
HETATM    6  C6  UNL     1      -0.191   1.256   0.070  1.00  0.00    -0.065 C 
HETATM    7  C7  UNL     1      -1.307   1.563   1.085  1.00  0.00    -0.063 C 
HETATM    8  C8  UNL     1      -2.177   0.355   1.485  1.00  0.00    -0.041 C 
HETATM    9  C9  UNL     1      -2.949  -0.269   0.307  1.00  0.00     0.034 C 
HETATM   10  O1  UNL     1      -3.791   0.716  -0.271  1.00  0.00    -0.391 OA
HETATM   11  C10 UNL     1      -3.824   0.584  -1.675  1.00  0.00     0.004 C 
HETATM   12  C11 UNL     1      -3.809  -1.433   0.811  1.00  0.00    -0.052 C 
HETATM   13  H1  UNL     1       4.628   0.865  -1.431  1.00  0.00     0.027 H 
HETATM   14  H2  UNL     1       5.508   0.277   0.042  1.00  0.00     0.027 H 
HETATM   15  H3  UNL     1       5.994  -0.291  -1.599  1.00  0.00     0.027 H 
HETATM   16  H4  UNL     1       3.757  -1.429  -1.862  1.00  0.00     0.032 H 
HETATM   17  H5  UNL     1       4.744  -2.077  -0.512  1.00  0.00     0.032 H 
HETATM   18  H6  UNL     1       3.440  -0.613   1.116  1.00  0.00     0.033 H 
HETATM   19  H7  UNL     1       2.497  -1.906   0.303  1.00  0.00     0.033 H 
HETATM   20  H8  UNL     1       1.640  -0.215  -1.376  1.00  0.00     0.033 H 
HETATM   21  H9  UNL     1       2.509   1.084  -0.471  1.00  0.00     0.033 H 
HETATM   22  H10 UNL     1       1.196   0.542   1.587  1.00  0.00     0.033 H 
HETATM   23  H11 UNL     1       0.333  -0.764   0.683  1.00  0.00     0.033 H 
HETATM   24  H12 UNL     1      -0.626   0.910  -0.891  1.00  0.00     0.033 H 
HETATM   25  H13 UNL     1       0.340   2.210  -0.142  1.00  0.00     0.033 H 
HETATM   26  H14 UNL     1      -1.959   2.358   0.664  1.00  0.00     0.033 H 
HETATM   27  H15 UNL     1      -0.845   1.982   2.005  1.00  0.00     0.033 H 
HETATM   28  H16 UNL     1      -2.908   0.704   2.247  1.00  0.00     0.036 H 
HETATM   29  H17 UNL     1      -1.547  -0.415   1.978  1.00  0.00     0.036 H 
HETATM   30  H18 UNL     1      -2.202  -0.692  -0.406  1.00  0.00     0.082 H 
HETATM   31  H19 UNL     1      -2.831   0.820  -2.117  1.00  0.00     0.066 H 
HETATM   32  H20 UNL     1      -4.153  -0.433  -1.981  1.00  0.00     0.066 H 
HETATM   33  H21 UNL     1      -4.555   1.312  -2.082  1.00  0.00     0.066 H 
HETATM   34  H22 UNL     1      -4.341  -1.910  -0.039  1.00  0.00     0.030 H 
HETATM   35  H23 UNL     1      -3.172  -2.203   1.296  1.00  0.00     0.030 H 
HETATM   36  H24 UNL     1      -4.563  -1.072   1.543  1.00  0.00     0.030 H 
TER      37      UNL     1 
ENDMDL
