REMARK FAKE_HEAD_ATOM=C6_O1
REMARK REAL_HEAD_ATOM=C5_C4
REMARK DUMMY_ATOM=C6_H11_H12_H13_O1
REMARK TORSION=H10_C5_C4_C2
REMARK TORSION=C5_C4_C2_C3
MODEL 0
HETATM    1  C1  UNL     1      -1.532   1.557  -0.131  1.00  0.00    -0.070 C 
HETATM    2  C2  UNL     1      -1.141   0.072   0.018  1.00  0.00    -0.050 C 
HETATM    3  C3  UNL     1      -2.167  -0.784  -0.755  1.00  0.00    -0.070 C 
HETATM    4  C4  UNL     1       0.270  -0.203  -0.586  1.00  0.00    -0.039 C 
HETATM    5  C5  UNL     1       1.426   0.596   0.043  1.00  0.00     0.020 C 
HETATM    6  O1  UNL     1       2.641   0.280  -0.613  1.00  0.00    -0.396 OA
HETATM    7  C6  UNL     1       3.359  -0.692   0.115  1.00  0.00     0.004 C 
HETATM    8  C7  UNL     1      -1.195  -0.329   1.508  1.00  0.00    -0.070 C 
HETATM    9  H1  UNL     1      -1.425   1.887  -1.187  1.00  0.00     0.028 H 
HETATM   10  H2  UNL     1      -2.588   1.716   0.178  1.00  0.00     0.028 H 
HETATM   11  H3  UNL     1      -0.900   2.207   0.510  1.00  0.00     0.028 H 
HETATM   12  H4  UNL     1      -3.194  -0.625  -0.359  1.00  0.00     0.028 H 
HETATM   13  H5  UNL     1      -2.168  -0.516  -1.834  1.00  0.00     0.028 H 
HETATM   14  H6  UNL     1      -1.925  -1.865  -0.664  1.00  0.00     0.028 H 
HETATM   15  H7  UNL     1       0.498  -1.287  -0.490  1.00  0.00     0.037 H 
HETATM   16  H8  UNL     1       0.252   0.025  -1.675  1.00  0.00     0.037 H 
HETATM   17  H9  UNL     1       1.472   0.438   1.145  1.00  0.00     0.074 H 
HETATM   18  H10 UNL     1       1.246   1.678  -0.112  1.00  0.00     0.074 H 
HETATM   19  H11 UNL     1       3.716  -0.274   1.082  1.00  0.00     0.066 H 
HETATM   20  H12 UNL     1       2.751  -1.607   0.289  1.00  0.00     0.066 H 
HETATM   21  H13 UNL     1       4.252  -0.987  -0.474  1.00  0.00     0.066 H 
HETATM   22  H14 UNL     1      -0.840  -1.373   1.646  1.00  0.00     0.028 H 
HETATM   23  H15 UNL     1      -0.571   0.344   2.131  1.00  0.00     0.028 H 
HETATM   24  H16 UNL     1      -2.236  -0.262   1.892  1.00  0.00     0.028 H 
TER      25      UNL     1 
ENDMDL
