REMARK FAKE_HEAD_ATOM=C3_O1
REMARK REAL_HEAD_ATOM=C2_C4
REMARK DUMMY_ATOM=C3_H4_H5_H6_O1
REMARK TORSION=C1_C2_C4_CL1
MODEL 0
HETATM    1  C1  UNL     1      -1.248   1.273  -0.528  1.00  0.00    -0.047 C 
HETATM    2  C2  UNL     1      -0.224   0.191  -0.131  1.00  0.00     0.065 C 
HETATM    3  O1  UNL     1       1.031   0.869  -0.050  1.00  0.00    -0.385 OA
HETATM    4  C3  UNL     1       2.077   0.097   0.508  1.00  0.00     0.005 C 
HETATM    5  C4  UNL     1      -0.651  -0.437   1.231  1.00  0.00     0.030 C 
HETATM    6 CL1  UNL     1      -2.296  -1.143   1.207  1.00  0.00    -0.127 Cl
HETATM    7  C5  UNL     1      -0.195  -0.876  -1.250  1.00  0.00    -0.047 C 
HETATM    8  H1  UNL     1      -1.326   2.042   0.270  1.00  0.00     0.031 H 
HETATM    9  H2  UNL     1      -2.257   0.845  -0.707  1.00  0.00     0.031 H 
HETATM   10  H3  UNL     1      -0.924   1.781  -1.462  1.00  0.00     0.031 H 
HETATM   11  H4  UNL     1       1.990   0.062   1.615  1.00  0.00     0.066 H 
HETATM   12  H5  UNL     1       3.040   0.597   0.276  1.00  0.00     0.066 H 
HETATM   13  H6  UNL     1       2.137  -0.927   0.087  1.00  0.00     0.066 H 
HETATM   14  H7  UNL     1      -0.614   0.335   2.029  1.00  0.00     0.061 H 
HETATM   15  H8  UNL     1       0.037  -1.260   1.517  1.00  0.00     0.061 H 
HETATM   16  H9  UNL     1       0.284  -0.462  -2.162  1.00  0.00     0.031 H 
HETATM   17  H10 UNL     1      -1.223  -1.203  -1.516  1.00  0.00     0.031 H 
HETATM   18  H11 UNL     1       0.362  -1.783  -0.937  1.00  0.00     0.031 H 
TER      19      UNL     1 
ENDMDL
