REMARK FAKE_HEAD_ATOM=C5_O1
REMARK REAL_HEAD_ATOM=C4_C3
REMARK DUMMY_ATOM=C5_H6_H7_H8_O1
REMARK TORSION=C4_C3_C2_C1
MODEL 0
HETATM    1  C1  UNL     1       3.156   0.140  -1.060  1.00  0.00    -0.021 C 
HETATM    2  C2  UNL     1       1.815   0.082  -0.478  1.00  0.00    -0.109 C 
HETATM    3  C3  UNL     1       0.710   0.033   0.001  1.00  0.00    -0.081 C 
HETATM    4  C4  UNL     1      -0.631  -0.025   0.583  1.00  0.00     0.073 C 
HETATM    5  O1  UNL     1      -1.578  -0.089  -0.459  1.00  0.00    -0.384 OA
HETATM    6  C5  UNL     1      -2.874  -0.146   0.092  1.00  0.00     0.005 C 
HETATM    7  H1  UNL     1       3.220  -0.563  -1.915  1.00  0.00     0.044 H 
HETATM    8  H2  UNL     1       3.362   1.172  -1.413  1.00  0.00     0.044 H 
HETATM    9  H3  UNL     1       3.905  -0.143  -0.292  1.00  0.00     0.044 H 
HETATM   10  H4  UNL     1      -0.778   0.889   1.201  1.00  0.00     0.093 H 
HETATM   11  H5  UNL     1      -0.686  -0.930   1.229  1.00  0.00     0.093 H 
HETATM   12  H6  UNL     1      -3.008  -1.058   0.715  1.00  0.00     0.066 H 
HETATM   13  H7  UNL     1      -3.100   0.768   0.687  1.00  0.00     0.066 H 
HETATM   14  H8  UNL     1      -3.610  -0.195  -0.737  1.00  0.00     0.066 H 
TER      15      UNL     1 
ENDMDL
