REMARK FAKE_HEAD_ATOM=C7_O1
REMARK REAL_HEAD_ATOM=C6_C5
REMARK DUMMY_ATOM=C7_H13_H14_H15_O1
REMARK TORSION=H12_C6_C5_C4
REMARK TORSION=C6_C5_C4_C3
REMARK TORSION=C5_C4_C3_C2
REMARK TORSION=C4_C3_C2_C1
MODEL 0
HETATM    1  C1  UNL     1       3.178   1.276  -1.746  1.00  0.00    -0.077 C 
HETATM    2  C2  UNL     1       2.516   1.164  -0.373  1.00  0.00    -0.069 C 
HETATM    3  C3  UNL     1       1.459   0.051  -0.309  1.00  0.00    -0.065 C 
HETATM    4  C4  UNL     1       0.172   0.417  -1.069  1.00  0.00    -0.063 C 
HETATM    5  C5  UNL     1      -0.878  -0.707  -1.036  1.00  0.00    -0.041 C 
HETATM    6  C6  UNL     1      -1.531  -0.897   0.347  1.00  0.00     0.034 C 
HETATM    7  O1  UNL     1      -2.167   0.311   0.732  1.00  0.00    -0.391 OA
HETATM    8  C7  UNL     1      -1.922   0.592   2.092  1.00  0.00     0.004 C 
HETATM    9  C8  UNL     1      -2.578  -2.012   0.280  1.00  0.00    -0.052 C 
HETATM   10  H1  UNL     1       2.454   1.635  -2.506  1.00  0.00     0.027 H 
HETATM   11  H2  UNL     1       4.012   2.007  -1.695  1.00  0.00     0.027 H 
HETATM   12  H3  UNL     1       3.589   0.294  -2.062  1.00  0.00     0.027 H 
HETATM   13  H4  UNL     1       2.063   2.141  -0.096  1.00  0.00     0.032 H 
HETATM   14  H5  UNL     1       3.308   0.939   0.374  1.00  0.00     0.032 H 
HETATM   15  H6  UNL     1       1.216  -0.113   0.762  1.00  0.00     0.033 H 
HETATM   16  H7  UNL     1       1.883  -0.896  -0.708  1.00  0.00     0.033 H 
HETATM   17  H8  UNL     1       0.421   0.605  -2.135  1.00  0.00     0.033 H 
HETATM   18  H9  UNL     1      -0.258   1.355  -0.658  1.00  0.00     0.033 H 
HETATM   19  H10 UNL     1      -0.407  -1.660  -1.366  1.00  0.00     0.036 H 
HETATM   20  H11 UNL     1      -1.672  -0.458  -1.775  1.00  0.00     0.036 H 
HETATM   21  H12 UNL     1      -0.738  -1.235   1.057  1.00  0.00     0.082 H 
HETATM   22  H13 UNL     1      -2.492   1.501   2.375  1.00  0.00     0.066 H 
HETATM   23  H14 UNL     1      -2.264  -0.240   2.746  1.00  0.00     0.066 H 
HETATM   24  H15 UNL     1      -0.843   0.803   2.262  1.00  0.00     0.066 H 
HETATM   25  H16 UNL     1      -3.386  -1.745  -0.435  1.00  0.00     0.030 H 
HETATM   26  H17 UNL     1      -2.109  -2.966  -0.042  1.00  0.00     0.030 H 
HETATM   27  H18 UNL     1      -3.030  -2.167   1.283  1.00  0.00     0.030 H 
TER      28      UNL     1 
ENDMDL
