REMARK FAKE_HEAD_ATOM=C5_O2
REMARK REAL_HEAD_ATOM=C4_C3
REMARK DUMMY_ATOM=C5_H10_H11_H9_O2
REMARK TORSION=H7_C4_C3_C2
REMARK TORSION=C4_C3_C2_C1
REMARK TORSION=C3_C2_C1_O1
REMARK TORSION=C2_C1_O1_H1
REMARK TORSION=C4_C3_O3_H12
MODEL 0
HETATM    1  O1  UNL     1       3.498   0.169  -0.769  1.00  0.00    -0.401 OA
HETATM    2  C1  UNL     1       2.587  -0.453   0.096  1.00  0.00     0.019 C 
HETATM    3  C2  UNL     1       1.152  -0.078  -0.288  1.00  0.00    -0.019 C 
HETATM    4  C3  UNL     1       0.116  -0.798   0.601  1.00  0.00     0.058 C 
HETATM    5  C4  UNL     1      -1.323  -0.530   0.132  1.00  0.00     0.043 C 
HETATM    6  O2  UNL     1      -1.607   0.853   0.194  1.00  0.00    -0.393 OA
HETATM    7  C5  UNL     1      -2.927   1.080  -0.246  1.00  0.00     0.004 C 
HETATM    8  O3  UNL     1       0.269  -0.447   1.955  1.00  0.00    -0.393 OA
HETATM    9  H1  UNL     1       3.550   1.121  -0.490  1.00  0.00     0.209 HD
HETATM   10  H2  UNL     1       2.718  -1.553   0.011  1.00  0.00     0.074 H 
HETATM   11  H3  UNL     1       2.798  -0.161   1.150  1.00  0.00     0.074 H 
HETATM   12  H4  UNL     1       1.026   1.024  -0.202  1.00  0.00     0.040 H 
HETATM   13  H5  UNL     1       0.983  -0.360  -1.350  1.00  0.00     0.040 H 
HETATM   14  H6  UNL     1       0.289  -1.893   0.514  1.00  0.00     0.086 H 
HETATM   15  H7  UNL     1      -2.014  -1.102   0.793  1.00  0.00     0.078 H 
HETATM   16  H8  UNL     1      -1.432  -0.909  -0.910  1.00  0.00     0.078 H 
HETATM   17  H9  UNL     1      -3.664   0.559   0.406  1.00  0.00     0.066 H 
HETATM   18  H10 UNL     1      -3.137   2.167  -0.187  1.00  0.00     0.066 H 
HETATM   19  H11 UNL     1      -3.057   0.769  -1.306  1.00  0.00     0.066 H 
HETATM   20  H12 UNL     1       0.175   0.539   2.025  1.00  0.00     0.210 HD
TER      21      UNL     1 
ENDMDL
