REMARK FAKE_HEAD_ATOM=C9_O1
REMARK REAL_HEAD_ATOM=C8_C7
REMARK DUMMY_ATOM=C9_H18_H19_H20_O1
REMARK TORSION=H16_C8_C7_C6
REMARK TORSION=C8_C7_C6_C5
REMARK TORSION=C7_C6_C5_C4
REMARK TORSION=C6_C5_C4_C3
REMARK TORSION=C5_C4_C3_C2
REMARK TORSION=C4_C3_C2_C1
MODEL 0
HETATM    1  C1  UNL     1      -4.427   0.257   1.051  1.00  0.00    -0.077 C 
HETATM    2  C2  UNL     1      -3.701   0.556  -0.261  1.00  0.00    -0.069 C 
HETATM    3  C3  UNL     1      -2.172   0.502  -0.122  1.00  0.00    -0.065 C 
HETATM    4  C4  UNL     1      -1.644  -0.935   0.027  1.00  0.00    -0.065 C 
HETATM    5  C5  UNL     1      -0.116  -0.990   0.181  1.00  0.00    -0.065 C 
HETATM    6  C6  UNL     1       0.625  -0.639  -1.122  1.00  0.00    -0.063 C 
HETATM    7  C7  UNL     1       2.126  -0.963  -1.054  1.00  0.00    -0.045 C 
HETATM    8  C8  UNL     1       2.889  -0.045  -0.095  1.00  0.00     0.019 C 
HETATM    9  O1  UNL     1       4.270  -0.320  -0.199  1.00  0.00    -0.396 OA
HETATM   10  C9  UNL     1       4.983   0.526   0.674  1.00  0.00     0.004 C 
HETATM   11  H1  UNL     1      -4.283  -0.801   1.350  1.00  0.00     0.027 H 
HETATM   12  H2  UNL     1      -4.060   0.925   1.860  1.00  0.00     0.027 H 
HETATM   13  H3  UNL     1      -5.515   0.432   0.918  1.00  0.00     0.027 H 
HETATM   14  H4  UNL     1      -4.040  -0.154  -1.046  1.00  0.00     0.032 H 
HETATM   15  H5  UNL     1      -3.987   1.579  -0.589  1.00  0.00     0.032 H 
HETATM   16  H6  UNL     1      -1.850   1.119   0.746  1.00  0.00     0.033 H 
HETATM   17  H7  UNL     1      -1.738   0.956  -1.037  1.00  0.00     0.033 H 
HETATM   18  H8  UNL     1      -2.087  -1.395   0.936  1.00  0.00     0.033 H 
HETATM   19  H9  UNL     1      -1.957  -1.548  -0.847  1.00  0.00     0.033 H 
HETATM   20  H10 UNL     1       0.160  -2.023   0.486  1.00  0.00     0.033 H 
HETATM   21  H11 UNL     1       0.195  -0.302   0.996  1.00  0.00     0.033 H 
HETATM   22  H12 UNL     1       0.187  -1.227  -1.958  1.00  0.00     0.033 H 
HETATM   23  H13 UNL     1       0.494   0.438  -1.361  1.00  0.00     0.033 H 
HETATM   24  H14 UNL     1       2.554  -0.841  -2.073  1.00  0.00     0.036 H 
HETATM   25  H15 UNL     1       2.273  -2.023  -0.753  1.00  0.00     0.036 H 
HETATM   26  H16 UNL     1       2.537  -0.235   0.944  1.00  0.00     0.074 H 
HETATM   27  H17 UNL     1       2.681   1.015  -0.372  1.00  0.00     0.074 H 
HETATM   28  H18 UNL     1       4.842   1.597   0.404  1.00  0.00     0.066 H 
HETATM   29  H19 UNL     1       4.692   0.351   1.734  1.00  0.00     0.066 H 
HETATM   30  H20 UNL     1       6.065   0.298   0.582  1.00  0.00     0.066 H 
TER      31      UNL     1 
ENDMDL
