REMARK FAKE_HEAD_ATOM=C1_O1
REMARK REAL_HEAD_ATOM=C2_C3
REMARK DUMMY_ATOM=C1_H1_H2_H3_O1
REMARK TORSION=H4_C2_C3_N1
REMARK TORSION=C2_C3_N1_C4
REMARK TORSION=C3_N1_C4_O2
MODEL 0
HETATM    1  C1  UNL     1      -2.735   0.190   0.184  1.00  0.00     0.004 C 
HETATM    2  O1  UNL     1      -1.827  -0.561  -0.592  1.00  0.00    -0.394 OA
HETATM    3  C2  UNL     1      -0.667  -0.865   0.161  1.00  0.00     0.042 C 
HETATM    4  C3  UNL     1       0.449   0.137  -0.160  1.00  0.00     0.108 C 
HETATM    5  N1  UNL     1       1.684  -0.211   0.555  1.00  0.00    -0.019 N 
HETATM    6  C4  UNL     1       2.732   0.716   0.221  1.00  0.00     0.263 C 
HETATM    7  O2  UNL     1       2.673   1.879   0.590  1.00  0.00    -0.276 OA
HETATM    8  H1  UNL     1      -3.588   0.488  -0.460  1.00  0.00     0.066 H 
HETATM    9  H2  UNL     1      -3.140  -0.422   1.020  1.00  0.00     0.066 H 
HETATM   10  H3  UNL     1      -2.267   1.120   0.575  1.00  0.00     0.066 H 
HETATM   11  H4  UNL     1      -0.845  -0.906   1.263  1.00  0.00     0.076 H 
HETATM   12  H5  UNL     1      -0.327  -1.879  -0.138  1.00  0.00     0.076 H 
HETATM   13  H6  UNL     1       0.114   1.157   0.134  1.00  0.00     0.079 H 
HETATM   14  H7  UNL     1       0.631   0.130  -1.259  1.00  0.00     0.079 H 
HETATM   15  H8  UNL     1       1.992  -1.172   0.278  1.00  0.00     0.286 HD
HETATM   16  H9  UNL     1       1.525  -0.183   1.590  1.00  0.00     0.286 HD
HETATM   17  H10 UNL     1       3.594   0.381  -0.347  1.00  0.00     0.191 H 
TER      18      UNL     1 
ENDMDL
