REMARK FAKE_HEAD_ATOM=C1_O1
REMARK REAL_HEAD_ATOM=C2_C3
REMARK DUMMY_ATOM=C1_H1_H2_H3_O1
REMARK TORSION=H4_C2_C3_C4
REMARK TORSION=C2_C3_C4_C5
REMARK TORSION=C2_C3_O2_H12
MODEL 0
HETATM    1  C1  UNL     1       3.226  -0.106   0.213  1.00  0.00     0.004 C 
HETATM    2  O1  UNL     1       1.942   0.212   0.700  1.00  0.00    -0.393 OA
HETATM    3  C2  UNL     1       0.969  -0.211  -0.233  1.00  0.00     0.043 C 
HETATM    4  C3  UNL     1      -0.428   0.147   0.295  1.00  0.00     0.056 C 
HETATM    5  C4  UNL     1      -1.526  -0.323  -0.679  1.00  0.00    -0.043 C 
HETATM    6  C5  UNL     1      -2.925  -0.064  -0.124  1.00  0.00    -0.074 C 
HETATM    7  O2  UNL     1      -0.525   1.530   0.534  1.00  0.00    -0.393 OA
HETATM    8  H1  UNL     1       3.347  -1.204   0.081  1.00  0.00     0.066 H 
HETATM    9  H2  UNL     1       3.439   0.426  -0.740  1.00  0.00     0.066 H 
HETATM   10  H3  UNL     1       3.978   0.227   0.958  1.00  0.00     0.066 H 
HETATM   11  H4  UNL     1       1.022  -1.315  -0.374  1.00  0.00     0.078 H 
HETATM   12  H5  UNL     1       1.123   0.290  -1.217  1.00  0.00     0.078 H 
HETATM   13  H6  UNL     1      -0.569  -0.381   1.264  1.00  0.00     0.086 H 
HETATM   14  H7  UNL     1      -1.420   0.199  -1.655  1.00  0.00     0.036 H 
HETATM   15  H8  UNL     1      -1.418  -1.415  -0.861  1.00  0.00     0.036 H 
HETATM   16  H9  UNL     1      -3.059  -0.587   0.847  1.00  0.00     0.027 H 
HETATM   17  H10 UNL     1      -3.685  -0.444  -0.839  1.00  0.00     0.027 H 
HETATM   18  H11 UNL     1      -3.091   1.025   0.019  1.00  0.00     0.027 H 
HETATM   19  H12 UNL     1      -0.401   1.995  -0.335  1.00  0.00     0.210 HD
TER      20      UNL     1 
ENDMDL
