REMARK FAKE_HEAD_ATOM=C7_O1
REMARK REAL_HEAD_ATOM=C3_C2
REMARK DUMMY_ATOM=C7_H14_H15_H16_O1
REMARK TORSION=H6_C3_C4_C5
REMARK TORSION=H6_C3_C2_C1
MODEL 0
HETATM    1  C1  UNL     1       1.711  -1.440  -0.608  1.00  0.00    -0.074 C 
HETATM    2  C2  UNL     1       1.389  -0.664   0.670  1.00  0.00    -0.044 C 
HETATM    3  C3  UNL     1       0.333   0.456   0.509  1.00  0.00     0.040 C 
HETATM    4  C4  UNL     1      -1.113  -0.011   0.137  1.00  0.00    -0.036 C 
HETATM    5  C5  UNL     1      -1.333  -0.260  -1.365  1.00  0.00    -0.071 C 
HETATM    6  C6  UNL     1      -1.590  -1.212   0.966  1.00  0.00    -0.071 C 
HETATM    7  O1  UNL     1       0.815   1.404  -0.433  1.00  0.00    -0.390 OA
HETATM    8  C7  UNL     1       0.518   2.722  -0.025  1.00  0.00     0.004 C 
HETATM    9  H1  UNL     1       2.682  -1.964  -0.485  1.00  0.00     0.027 H 
HETATM   10  H2  UNL     1       0.942  -2.216  -0.795  1.00  0.00     0.027 H 
HETATM   11  H3  UNL     1       1.790  -0.762  -1.483  1.00  0.00     0.027 H 
HETATM   12  H4  UNL     1       1.089  -1.376   1.468  1.00  0.00     0.036 H 
HETATM   13  H5  UNL     1       2.331  -0.187   1.020  1.00  0.00     0.036 H 
HETATM   14  H6  UNL     1       0.260   0.897   1.534  1.00  0.00     0.083 H 
HETATM   15  H7  UNL     1      -1.789   0.831   0.404  1.00  0.00     0.042 H 
HETATM   16  H8  UNL     1      -2.414  -0.426  -1.560  1.00  0.00     0.028 H 
HETATM   17  H9  UNL     1      -1.020   0.621  -1.963  1.00  0.00     0.028 H 
HETATM   18  H10 UNL     1      -0.788  -1.152  -1.723  1.00  0.00     0.028 H 
HETATM   19  H11 UNL     1      -1.058  -2.139   0.669  1.00  0.00     0.028 H 
HETATM   20  H12 UNL     1      -1.422  -1.024   2.048  1.00  0.00     0.028 H 
HETATM   21  H13 UNL     1      -2.678  -1.372   0.809  1.00  0.00     0.028 H 
HETATM   22  H14 UNL     1      -0.574   2.866   0.128  1.00  0.00     0.066 H 
HETATM   23  H15 UNL     1       1.079   2.985   0.899  1.00  0.00     0.066 H 
HETATM   24  H16 UNL     1       0.840   3.421  -0.824  1.00  0.00     0.066 H 
TER      25      UNL     1 
ENDMDL
