REMARK FAKE_HEAD_ATOM=C9_O1
REMARK REAL_HEAD_ATOM=C8_C7
REMARK DUMMY_ATOM=C9_H17_H18_H19_O1
REMARK TORSION=H16_C8_C7_C6
REMARK TORSION=C8_C7_C6_C5
REMARK TORSION-C7_C6_C5_C4
REMARK TORSION=C6_C5_C4_C3
REMARK TORSION=C5_C4_C3_C2
REMARK TORSION=C4_C3_C2_C1
MODEL 0
HETATM    1  C1  UNL     1       3.649   1.356   0.816  1.00  0.00    -0.077 C 
HETATM    2  C2  UNL     1       4.158   0.590  -0.403  1.00  0.00    -0.069 C 
HETATM    3  C3  UNL     1       3.354  -0.690  -0.689  1.00  0.00    -0.065 C 
HETATM    4  C4  UNL     1       1.900  -0.420  -1.131  1.00  0.00    -0.065 C 
HETATM    5  C5  UNL     1       0.895  -0.642   0.009  1.00  0.00    -0.065 C 
HETATM    6  C6  UNL     1      -0.534  -0.320  -0.446  1.00  0.00    -0.063 C 
HETATM    7  C7  UNL     1      -1.541  -0.563   0.689  1.00  0.00    -0.041 C 
HETATM    8  C8  UNL     1      -2.976  -0.125   0.324  1.00  0.00     0.034 C 
HETATM    9  O1  UNL     1      -3.787  -0.188   1.486  1.00  0.00    -0.391 OA
HETATM   10  C9  UNL     1      -3.944   1.092   2.058  1.00  0.00     0.004 C 
HETATM   11  C10 UNL     1      -3.592  -1.048  -0.731  1.00  0.00    -0.052 C 
HETATM   12  H1  UNL     1       4.357   2.177   1.058  1.00  0.00     0.027 H 
HETATM   13  H2  UNL     1       3.573   0.684   1.696  1.00  0.00     0.027 H 
HETATM   14  H3  UNL     1       2.658   1.810   0.603  1.00  0.00     0.027 H 
HETATM   15  H4  UNL     1       4.142   1.255  -1.293  1.00  0.00     0.032 H 
HETATM   16  H5  UNL     1       5.216   0.303  -0.218  1.00  0.00     0.032 H 
HETATM   17  H6  UNL     1       3.873  -1.226  -1.513  1.00  0.00     0.033 H 
HETATM   18  H7  UNL     1       3.389  -1.365   0.195  1.00  0.00     0.033 H 
HETATM   19  H8  UNL     1       1.798   0.610  -1.536  1.00  0.00     0.033 H 
HETATM   20  H9  UNL     1       1.647  -1.122  -1.957  1.00  0.00     0.033 H 
HETATM   21  H10 UNL     1       1.155   0.002   0.875  1.00  0.00     0.033 H 
HETATM   22  H11 UNL     1       0.944  -1.703   0.337  1.00  0.00     0.033 H 
HETATM   23  H12 UNL     1      -0.786  -0.964  -1.315  1.00  0.00     0.033 H 
HETATM   24  H13 UNL     1      -0.585   0.744  -0.764  1.00  0.00     0.033 H 
HETATM   25  H14 UNL     1      -1.213   0.015   1.580  1.00  0.00     0.036 H 
HETATM   26  H15 UNL     1      -1.536  -1.639   0.972  1.00  0.00     0.036 H 
HETATM   27  H16 UNL     1      -2.942   0.899  -0.126  1.00  0.00     0.082 H 
HETATM   28  H17 UNL     1      -2.962   1.559   2.291  1.00  0.00     0.066 H 
HETATM   29  H18 UNL     1      -4.538   1.751   1.388  1.00  0.00     0.066 H 
HETATM   30  H19 UNL     1      -4.503   0.988   3.011  1.00  0.00     0.066 H 
HETATM   31  H20 UNL     1      -4.654  -0.768  -0.895  1.00  0.00     0.030 H 
HETATM   32  H21 UNL     1      -3.064  -0.952  -1.701  1.00  0.00     0.030 H 
HETATM   33  H22 UNL     1      -3.556  -2.107  -0.395  1.00  0.00     0.030 H 
TER      34      UNL     1 
ENDMDL
