REMARK FAKE_HEAD_ATOM=C5_O2
REMARK REAL_HEAD_ATOM=C2_C3
REMARK DUMMY_ATOM=C5_H10_H8_H9_O2
REMARK TORSION=C1_C2_C3_C4
MODEL 0
HETATM    1  C1  UNL     1      -0.213   1.580  -0.726  1.00  0.00    -0.046 C 
HETATM    2  C2  UNL     1      -0.120   0.201  -0.067  1.00  0.00     0.091 C 
HETATM    3  C3  UNL     1       0.986  -0.599  -0.714  1.00  0.00     0.151 C 
HETATM    4  C4  UNL     1       2.198  -1.032   0.059  1.00  0.00    -0.018 C 
HETATM    5  O1  UNL     1       0.895  -0.912  -1.892  1.00  0.00    -0.296 OA
HETATM    6  O2  UNL     1      -1.341  -0.497  -0.247  1.00  0.00    -0.384 OA
HETATM    7  C5  UNL     1      -2.161  -0.376   0.896  1.00  0.00     0.005 C 
HETATM    8  H1  UNL     1       0.759   2.111  -0.644  1.00  0.00     0.031 H 
HETATM    9  H2  UNL     1      -0.484   1.483  -1.800  1.00  0.00     0.031 H 
HETATM   10  H3  UNL     1      -0.988   2.193  -0.221  1.00  0.00     0.031 H 
HETATM   11  H4  UNL     1       0.138   0.356   1.009  1.00  0.00     0.094 H 
HETATM   12  H5  UNL     1       2.157  -0.686   1.113  1.00  0.00     0.037 H 
HETATM   13  H6  UNL     1       3.109  -0.612  -0.415  1.00  0.00     0.037 H 
HETATM   14  H7  UNL     1       2.264  -2.140   0.053  1.00  0.00     0.037 H 
HETATM   15  H8  UNL     1      -2.360   0.690   1.144  1.00  0.00     0.066 H 
HETATM   16  H9  UNL     1      -3.136  -0.861   0.685  1.00  0.00     0.066 H 
HETATM   17  H10 UNL     1      -1.704  -0.899   1.765  1.00  0.00     0.066 H 
TER      18      UNL     1 
ENDMDL
