REMARK FAKE_HEAD_ATOM=C3_O1
REMARK REAL_HEAD_ATOM=C2_C1
REMARK DUMMY_ATOM=C3_H3_H4_H5_O1
REMARK TORSION=H1_C2_C1_N1
MODEL 0
HETATM    1  N1  UNL     1      -1.025   2.033   1.627  1.00  0.00    -0.195 NA
HETATM    2  C1  UNL     1      -1.012   1.161   0.866  1.00  0.00     0.085 C 
HETATM    3  C2  UNL     1      -0.995   0.055  -0.099  1.00  0.00     0.097 C 
HETATM    4  O1  UNL     1      -0.054  -0.924   0.295  1.00  0.00    -0.382 OA
HETATM    5  C3  UNL     1       1.211  -0.636  -0.259  1.00  0.00     0.005 C 
HETATM    6  H1  UNL     1      -2.002  -0.411  -0.100  1.00  0.00     0.097 H 
HETATM    7  H2  UNL     1      -0.822   0.451  -1.128  1.00  0.00     0.097 H 
HETATM    8  H3  UNL     1       1.192  -0.742  -1.366  1.00  0.00     0.066 H 
HETATM    9  H4  UNL     1       1.946  -1.367   0.137  1.00  0.00     0.066 H 
HETATM   10  H5  UNL     1       1.561   0.381   0.027  1.00  0.00     0.066 H 
TER      11      UNL     1 
ENDMDL
