REMARK FAKE_HEAD_ATOM=C4_O1
REMARK REAL_HEAD_ATOM=C3_C2
REMARK DUMMY_ATOM=C4_H10_H11_H9_O1
REMARK TORSION=H7_C3_C2_N1
MODEL 0
HETATM    1  C1  UNL     1      -1.111   0.257   1.424  1.00  0.00    -0.044 C 
HETATM    2  C2  UNL     1      -0.748   0.158  -0.073  1.00  0.00     0.137 C 
HETATM    3  N1  UNL     1      -1.423   1.241  -0.811  1.00  0.00    -0.069 N 
HETATM    4  C3  UNL     1       0.785   0.296  -0.253  1.00  0.00     0.049 C 
HETATM    5  O1  UNL     1       1.459  -0.733   0.446  1.00  0.00    -0.394 OA
HETATM    6  C4  UNL     1       2.850  -0.588   0.268  1.00  0.00     0.004 C 
HETATM    7  C5  UNL     1      -1.220  -1.204  -0.624  1.00  0.00    -0.044 C 
HETATM    8  H1  UNL     1      -0.766   1.226   1.845  1.00  0.00     0.030 H 
HETATM    9  H2  UNL     1      -0.641  -0.566   2.003  1.00  0.00     0.030 H 
HETATM   10  H3  UNL     1      -2.212   0.192   1.561  1.00  0.00     0.030 H 
HETATM   11  H4  UNL     1      -1.193   1.189  -1.830  1.00  0.00     0.275 HD
HETATM   12  H5  UNL     1      -2.462   1.167  -0.702  1.00  0.00     0.275 HD
HETATM   13  H6  UNL     1      -1.120   2.175  -0.449  1.00  0.00     0.275 HD
HETATM   14  H7  UNL     1       1.023   0.245  -1.341  1.00  0.00     0.078 H 
HETATM   15  H8  UNL     1       1.101   1.294   0.129  1.00  0.00     0.078 H 
HETATM   16  H9  UNL     1       3.131  -0.681  -0.804  1.00  0.00     0.066 H 
HETATM   17  H10 UNL     1       3.363  -1.401   0.822  1.00  0.00     0.066 H 
HETATM   18  H11 UNL     1       3.210   0.380   0.683  1.00  0.00     0.066 H 
HETATM   19  H12 UNL     1      -2.323  -1.301  -0.529  1.00  0.00     0.030 H 
HETATM   20  H13 UNL     1      -0.954  -1.304  -1.698  1.00  0.00     0.030 H 
HETATM   21  H14 UNL     1      -0.751  -2.043  -0.067  1.00  0.00     0.030 H 
TER      22      UNL     1 
ENDMDL
