REMARK FAKE_HEAD_ATOM=C7_O1
REMARK REAL_HEAD_ATOM=C2_C3
REMARK DUMMY_ATOM=C7_H14_H15_H16_O1
REMARK TORSION=H4_C2_C3_C5
MODEL 0
HETATM    1  C1  UNL     1       0.816   0.416   1.797  1.00  0.00    -0.051 C 
HETATM    2  C2  UNL     1       0.633   0.281   0.276  1.00  0.00     0.040 C 
HETATM    3  C3  UNL     1      -0.834  -0.053  -0.162  1.00  0.00    -0.025 C 
HETATM    4  C4  UNL     1      -1.818   1.044   0.307  1.00  0.00    -0.067 C 
HETATM    5  C5  UNL     1      -0.888  -0.111  -1.706  1.00  0.00    -0.067 C 
HETATM    6  C6  UNL     1      -1.300  -1.418   0.395  1.00  0.00    -0.067 C 
HETATM    7  O1  UNL     1       1.507  -0.740  -0.189  1.00  0.00    -0.390 OA
HETATM    8  C7  UNL     1       2.655  -0.187  -0.794  1.00  0.00     0.004 C 
HETATM    9  H1  UNL     1       0.194   1.236   2.209  1.00  0.00     0.030 H 
HETATM   10  H2  UNL     1       1.874   0.665   2.022  1.00  0.00     0.030 H 
HETATM   11  H3  UNL     1       0.578  -0.534   2.318  1.00  0.00     0.030 H 
HETATM   12  H4  UNL     1       0.874   1.285  -0.157  1.00  0.00     0.083 H 
HETATM   13  H5  UNL     1      -1.468   2.049  -0.012  1.00  0.00     0.028 H 
HETATM   14  H6  UNL     1      -1.931   1.040   1.411  1.00  0.00     0.028 H 
HETATM   15  H7  UNL     1      -2.828   0.875  -0.124  1.00  0.00     0.028 H 
HETATM   16  H8  UNL     1      -0.555   0.853  -2.146  1.00  0.00     0.028 H 
HETATM   17  H9  UNL     1      -0.232  -0.918  -2.097  1.00  0.00     0.028 H 
HETATM   18  H10 UNL     1      -1.922  -0.313  -2.060  1.00  0.00     0.028 H 
HETATM   19  H11 UNL     1      -2.304  -1.679  -0.006  1.00  0.00     0.028 H 
HETATM   20  H12 UNL     1      -1.382  -1.396   1.501  1.00  0.00     0.028 H 
HETATM   21  H13 UNL     1      -0.596  -2.227   0.107  1.00  0.00     0.028 H 
HETATM   22  H14 UNL     1       3.203   0.478  -0.090  1.00  0.00     0.066 H 
HETATM   23  H15 UNL     1       3.338  -1.013  -1.080  1.00  0.00     0.066 H 
HETATM   24  H16 UNL     1       2.385   0.366  -1.720  1.00  0.00     0.066 H 
TER      25      UNL     1 
ENDMDL
