REMARK FAKE_HEAD_ATOM=C1_O1
REMARK REAL_HEAD_ATOM=C2_C3
REMARK DUMMY_ATOM=C1_H1_H2_H3_O1
REMARK TORSION=H4_C2_C3_C4
REMARK TORSION=C2_C3_C4_C5
MODEL 0
HETATM    1  C1  UNL     1      -2.428   1.380  -0.772  1.00  0.00     0.004 C 
HETATM    2  O1  UNL     1      -1.176   0.738  -0.870  1.00  0.00    -0.391 OA
HETATM    3  C2  UNL     1      -0.883   0.019   0.318  1.00  0.00     0.034 C 
HETATM    4  C3  UNL     1       0.615   0.170   0.649  1.00  0.00    -0.042 C 
HETATM    5  C4  UNL     1       1.548  -0.298  -0.481  1.00  0.00    -0.066 C 
HETATM    6  C5  UNL     1       3.008  -0.022  -0.134  1.00  0.00    -0.076 C 
HETATM    7  C6  UNL     1      -1.284  -1.453   0.149  1.00  0.00    -0.052 C 
HETATM    8  H1  UNL     1      -2.401   2.181  -0.000  1.00  0.00     0.066 H 
HETATM    9  H2  UNL     1      -3.242   0.655  -0.552  1.00  0.00     0.066 H 
HETATM   10  H3  UNL     1      -2.657   1.859  -1.746  1.00  0.00     0.066 H 
HETATM   11  H4  UNL     1      -1.431   0.415   1.209  1.00  0.00     0.082 H 
HETATM   12  H5  UNL     1       0.846  -0.398   1.578  1.00  0.00     0.036 H 
HETATM   13  H6  UNL     1       0.813   1.244   0.860  1.00  0.00     0.036 H 
HETATM   14  H7  UNL     1       1.429  -1.390  -0.646  1.00  0.00     0.032 H 
HETATM   15  H8  UNL     1       1.301   0.233  -1.425  1.00  0.00     0.032 H 
HETATM   16  H9  UNL     1       3.292  -0.558   0.797  1.00  0.00     0.027 H 
HETATM   17  H10 UNL     1       3.660  -0.377  -0.960  1.00  0.00     0.027 H 
HETATM   18  H11 UNL     1       3.174   1.067   0.004  1.00  0.00     0.027 H 
HETATM   19  H12 UNL     1      -0.863  -1.873  -0.788  1.00  0.00     0.030 H 
HETATM   20  H13 UNL     1      -2.390  -1.539   0.099  1.00  0.00     0.030 H 
HETATM   21  H14 UNL     1      -0.930  -2.054   1.013  1.00  0.00     0.030 H 
TER      22      UNL     1 
ENDMDL
