REMARK FAKE_HEAD_ATOM=C6_O1
REMARK REAL_HEAD_ATOM=C5_C4
REMARK DUMMY_ATOM=C6_H10_H8_H9_O1
REMARK TORSION=H6_C5_C4_C3
REMARK TORSION=C5_C4_C3_C2
MODEL 0
HETATM    1  C1  UNL     1      -3.739   0.193   0.723  1.00  0.00    -0.021 C 
HETATM    2  C2  UNL     1      -2.422   0.230   0.088  1.00  0.00    -0.111 C 
HETATM    3  C3  UNL     1      -1.336   0.260  -0.436  1.00  0.00    -0.105 C 
HETATM    4  C4  UNL     1      -0.015   0.298  -1.073  1.00  0.00     0.011 C 
HETATM    5  C5  UNL     1       1.074  -0.085  -0.074  1.00  0.00     0.028 C 
HETATM    6  O1  UNL     1       2.328  -0.038  -0.722  1.00  0.00    -0.395 OA
HETATM    7  C6  UNL     1       3.340  -0.390   0.194  1.00  0.00     0.004 C 
HETATM    8  H1  UNL     1      -3.742   0.863   1.608  1.00  0.00     0.044 H 
HETATM    9  H2  UNL     1      -3.965  -0.845   1.045  1.00  0.00     0.044 H 
HETATM   10  H3  UNL     1      -4.508   0.532  -0.000  1.00  0.00     0.044 H 
HETATM   11  H4  UNL     1       0.171   1.323  -1.457  1.00  0.00     0.055 H 
HETATM   12  H5  UNL     1      -0.007  -0.412  -1.927  1.00  0.00     0.055 H 
HETATM   13  H6  UNL     1       0.867  -1.114   0.303  1.00  0.00     0.075 H 
HETATM   14  H7  UNL     1       1.047   0.636   0.777  1.00  0.00     0.075 H 
HETATM   15  H8  UNL     1       4.318  -0.349  -0.328  1.00  0.00     0.066 H 
HETATM   16  H9  UNL     1       3.383   0.327   1.044  1.00  0.00     0.066 H 
HETATM   17  H10 UNL     1       3.203  -1.429   0.568  1.00  0.00     0.066 H 
TER      18      UNL     1 
ENDMDL
