REMARK FAKE_HEAD_ATOM=C5_O1
REMARK REAL_HEAD_ATOM=C4_C3
REMARK DUMMY_ATOM=C5_H10_H11_H9_O1
REMARK TORSION=H7_C4_C3_C2
REMARK TORSION=C4_C3_C2_C6
REMARK TORSION=C3_C2_C6_C7
REMARK TORSION=C2_C6_C7_O2
REMARK TORSION=C6_C7_O2_H16
MODEL 0
HETATM    1  C1  UNL     1       1.067   0.018  -1.656  1.00  0.00    -0.073 C 
HETATM    2  C2  UNL     1       0.486   0.035  -0.230  1.00  0.00    -0.054 C 
HETATM    3  C3  UNL     1      -0.733   0.986  -0.134  1.00  0.00    -0.042 C 
HETATM    4  C4  UNL     1      -1.941   0.556  -0.984  1.00  0.00     0.019 C 
HETATM    5  O1  UNL     1      -2.269  -0.805  -0.768  1.00  0.00    -0.396 OA
HETATM    6  C5  UNL     1      -3.235  -0.924   0.254  1.00  0.00     0.004 C 
HETATM    7  C6  UNL     1       1.556   0.465   0.804  1.00  0.00    -0.042 C 
HETATM    8  C7  UNL     1       2.663  -0.581   0.999  1.00  0.00     0.017 C 
HETATM    9  O2  UNL     1       3.500  -0.206   2.059  1.00  0.00    -0.401 OA
HETATM   10  H1  UNL     1       0.313  -0.345  -2.383  1.00  0.00     0.028 H 
HETATM   11  H2  UNL     1       1.926  -0.679  -1.726  1.00  0.00     0.028 H 
HETATM   12  H3  UNL     1       1.400   1.034  -1.956  1.00  0.00     0.028 H 
HETATM   13  H4  UNL     1       0.151  -0.994   0.028  1.00  0.00     0.039 H 
HETATM   14  H5  UNL     1      -0.430   2.012  -0.439  1.00  0.00     0.036 H 
HETATM   15  H6  UNL     1      -1.067   1.050   0.924  1.00  0.00     0.036 H 
HETATM   16  H7  UNL     1      -2.795   1.248  -0.793  1.00  0.00     0.074 H 
HETATM   17  H8  UNL     1      -1.698   0.688  -2.058  1.00  0.00     0.074 H 
HETATM   18  H9  UNL     1      -4.202  -0.472  -0.060  1.00  0.00     0.066 H 
HETATM   19  H10 UNL     1      -3.415  -2.001   0.446  1.00  0.00     0.066 H 
HETATM   20  H11 UNL     1      -2.883  -0.468   1.205  1.00  0.00     0.066 H 
HETATM   21  H12 UNL     1       2.012   1.433   0.500  1.00  0.00     0.036 H 
HETATM   22  H13 UNL     1       1.065   0.621   1.790  1.00  0.00     0.036 H 
HETATM   23  H14 UNL     1       2.222  -1.585   1.195  1.00  0.00     0.073 H 
HETATM   24  H15 UNL     1       3.285  -0.652   0.084  1.00  0.00     0.073 H 
HETATM   25  H16 UNL     1       3.018  -0.434   2.897  1.00  0.00     0.209 HD
TER      26      UNL     1 
ENDMDL
