REMARK FAKE_HEAD_ATOM=C7_O1
REMARK REAL_HEAD_ATOM=C6_C5
REMARK DUMMY_ATOM=C7_H12_H13_H14_O1
REMARK TORSION=H10_C6_C5_C4
REMARK TORSION=C6_C5_C4_C2
REMARK TORSION=C5_C4_C2_C1
MODEL 0
HETATM    1  C1  UNL     1       1.731   0.962  -1.077  1.00  0.00    -0.055 C 
HETATM    2  C2  UNL     1       1.846  -0.103  -0.015  1.00  0.00    -0.091 C 
HETATM    3  C3  UNL     1       3.114  -0.158   0.798  1.00  0.00    -0.055 C 
HETATM    4  C4  UNL     1       0.872  -1.017   0.196  1.00  0.00    -0.099 C 
HETATM    5  C5  UNL     1      -0.446  -1.041  -0.538  1.00  0.00    -0.030 C 
HETATM    6  C6  UNL     1      -1.485  -0.178   0.175  1.00  0.00     0.022 C 
HETATM    7  O1  UNL     1      -2.703  -0.242  -0.536  1.00  0.00    -0.396 OA
HETATM    8  C7  UNL     1      -3.669   0.551   0.117  1.00  0.00     0.004 C 
HETATM    9  H1  UNL     1       1.647   0.493  -2.079  1.00  0.00     0.033 H 
HETATM   10  H2  UNL     1       0.845   1.602  -0.889  1.00  0.00     0.033 H 
HETATM   11  H3  UNL     1       2.630   1.614  -1.080  1.00  0.00     0.033 H 
HETATM   12  H4  UNL     1       3.284   0.824   1.286  1.00  0.00     0.033 H 
HETATM   13  H5  UNL     1       3.073  -0.936   1.590  1.00  0.00     0.033 H 
HETATM   14  H6  UNL     1       3.972  -0.382   0.130  1.00  0.00     0.033 H 
HETATM   15  H7  UNL     1       1.015  -1.780   0.957  1.00  0.00     0.077 H 
HETATM   16  H8  UNL     1      -0.330  -0.713  -1.593  1.00  0.00     0.042 H 
HETATM   17  H9  UNL     1      -0.814  -2.090  -0.562  1.00  0.00     0.042 H 
HETATM   18  H10 UNL     1      -1.617  -0.567   1.212  1.00  0.00     0.074 H 
HETATM   19  H11 UNL     1      -1.116   0.872   0.222  1.00  0.00     0.074 H 
HETATM   20  H12 UNL     1      -4.620   0.489  -0.451  1.00  0.00     0.066 H 
HETATM   21  H13 UNL     1      -3.867   0.179   1.147  1.00  0.00     0.066 H 
HETATM   22  H14 UNL     1      -3.362   1.620   0.142  1.00  0.00     0.066 H 
TER      23      UNL     1 
ENDMDL
