REMARK FAKE_HEAD_ATOM=C7_O1
REMARK REAL_HEAD_ATOM=C6_C5
REMARK DUMMY_ATOM=C7_H12_H13_H14_O1
REMARK TORSION=H10_C6_C5_C4
REMARK TORSION=C6_C5_C4_C3
REMARK TORSION=C5_C4_C3_C2
MODEL 0
HETATM    1  C1  UNL     1      -3.943   0.553  -0.403  1.00  0.00    -0.060 C 
HETATM    2  C2  UNL     1      -2.459   0.594  -0.213  1.00  0.00    -0.110 C 
HETATM    3  C3  UNL     1      -1.817  -0.397   0.422  1.00  0.00    -0.107 C 
HETATM    4  C4  UNL     1      -0.328  -0.362   0.634  1.00  0.00    -0.048 C 
HETATM    5  C5  UNL     1       0.425  -0.582  -0.685  1.00  0.00    -0.042 C 
HETATM    6  C6  UNL     1       1.940  -0.613  -0.473  1.00  0.00     0.019 C 
HETATM    7  O1  UNL     1       2.383   0.650  -0.024  1.00  0.00    -0.396 OA
HETATM    8  C7  UNL     1       3.776   0.608   0.188  1.00  0.00     0.004 C 
HETATM    9  H1  UNL     1      -4.276   1.461  -0.948  1.00  0.00     0.032 H 
HETATM   10  H2  UNL     1      -4.225  -0.344  -0.994  1.00  0.00     0.032 H 
HETATM   11  H3  UNL     1      -4.451   0.520   0.584  1.00  0.00     0.032 H 
HETATM   12  H4  UNL     1      -1.904   1.445  -0.598  1.00  0.00     0.075 H 
HETATM   13  H5  UNL     1      -2.381  -1.235   0.823  1.00  0.00     0.076 H 
HETATM   14  H6  UNL     1      -0.042   0.612   1.088  1.00  0.00     0.038 H 
HETATM   15  H7  UNL     1      -0.056  -1.168   1.350  1.00  0.00     0.038 H 
HETATM   16  H8  UNL     1       0.177   0.228  -1.405  1.00  0.00     0.036 H 
HETATM   17  H9  UNL     1       0.108  -1.550  -1.131  1.00  0.00     0.036 H 
HETATM   18  H10 UNL     1       2.415  -0.867  -1.448  1.00  0.00     0.074 H 
HETATM   19  H11 UNL     1       2.184  -1.412   0.266  1.00  0.00     0.074 H 
HETATM   20  H12 UNL     1       4.040  -0.125   0.983  1.00  0.00     0.066 H 
HETATM   21  H13 UNL     1       4.112   1.608   0.531  1.00  0.00     0.066 H 
HETATM   22  H14 UNL     1       4.321   0.374  -0.753  1.00  0.00     0.066 H 
TER      23      UNL     1 
ENDMDL
