REMARK FAKE_HEAD_ATOM=C3_O1
REMARK REAL_HEAD_ATOM=C2_C1
REMARK DUMMY_ATOM=C3_H10_H11_H9_O1
REMARK TORSION=H7_C2_C1_N2
REMARK TORSION=C2_C1_N2_N1
MODEL 0
HETATM    1  N1  UNL     1       2.886  -0.057  -0.217  1.00  0.00    -0.018 N 
HETATM    2  N2  UNL     1       1.636  -0.594   0.160  1.00  0.00    -0.156 NA
HETATM    3  C1  UNL     1       0.572   0.376  -0.128  1.00  0.00     0.021 C 
HETATM    4  C2  UNL     1      -0.794  -0.242   0.158  1.00  0.00     0.031 C 
HETATM    5  O1  UNL     1      -1.801   0.698  -0.152  1.00  0.00    -0.395 OA
HETATM    6  C3  UNL     1      -3.065   0.130   0.107  1.00  0.00     0.004 C 
HETATM    7  H1  UNL     1       3.072   0.835   0.301  1.00  0.00     0.296 HD
HETATM    8  H2  UNL     1       2.903   0.101  -1.251  1.00  0.00     0.296 HD
HETATM    9  H3  UNL     1       3.628  -0.754   0.022  1.00  0.00     0.296 HD
HETATM   10  H4  UNL     1       1.658  -0.756   1.195  1.00  0.00     0.153 HD
HETATM   11  H5  UNL     1       0.608   0.672  -1.200  1.00  0.00     0.061 H 
HETATM   12  H6  UNL     1       0.701   1.288   0.498  1.00  0.00     0.061 H 
HETATM   13  H7  UNL     1      -0.903  -1.158  -0.468  1.00  0.00     0.076 H 
HETATM   14  H8  UNL     1      -0.837  -0.522   1.236  1.00  0.00     0.076 H 
HETATM   15  H9  UNL     1      -3.177  -0.130   1.184  1.00  0.00     0.066 H 
HETATM   16  H10 UNL     1      -3.243  -0.765  -0.530  1.00  0.00     0.066 H 
HETATM   17  H11 UNL     1      -3.845   0.878  -0.140  1.00  0.00     0.066 H 
TER      18      UNL     1 
ENDMDL
