REMARK FAKE_HEAD_ATOM=C5_O2
REMARK REAL_HEAD_ATOM=C2_C1
REMARK DUMMY_ATOM=C5_H10_H8_H9_O2
REMARK TORSION=C1_C2_C3_C4
REMARK TORSION=H4_C2_C1_O1
REMARK TORSION=C2_C1_O1_H1
MODEL 0
HETATM    1  O1  UNL     1      -0.226   2.254  -1.212  1.00  0.00    -0.398 OA
HETATM    2  C1  UNL     1      -0.842   1.583  -0.145  1.00  0.00     0.044 C 
HETATM    3  C2  UNL     1      -0.281   0.164   0.008  1.00  0.00     0.073 C 
HETATM    4  C3  UNL     1       1.197   0.235   0.315  1.00  0.00    -0.083 C 
HETATM    5  C4  UNL     1       2.119  -0.220  -0.538  1.00  0.00    -0.122 C 
HETATM    6  O2  UNL     1      -0.956  -0.469   1.080  1.00  0.00    -0.385 OA
HETATM    7  C5  UNL     1      -0.954  -1.870   0.906  1.00  0.00     0.005 C 
HETATM    8  H1  UNL     1      -0.614   1.879  -2.046  1.00  0.00     0.209 HD
HETATM    9  H2  UNL     1      -1.943   1.536  -0.308  1.00  0.00     0.078 H 
HETATM   10  H3  UNL     1      -0.669   2.160   0.789  1.00  0.00     0.078 H 
HETATM   11  H4  UNL     1      -0.462  -0.359  -0.964  1.00  0.00     0.092 H 
HETATM   12  H5  UNL     1       1.519   0.683   1.250  1.00  0.00     0.079 H 
HETATM   13  H6  UNL     1       3.172  -0.145  -0.288  1.00  0.00     0.066 H 
HETATM   14  H7  UNL     1       1.837  -0.666  -1.487  1.00  0.00     0.066 H 
HETATM   15  H8  UNL     1      -1.405  -2.339   1.805  1.00  0.00     0.066 H 
HETATM   16  H9  UNL     1       0.079  -2.268   0.801  1.00  0.00     0.066 H 
HETATM   17  H10 UNL     1      -1.573  -2.160   0.029  1.00  0.00     0.066 H 
TER      18      UNL     1 
ENDMDL
