REMARK FAKE_HEAD_ATOM=C6_O1
REMARK REAL_HEAD_ATOM=C5_C4
REMARK DUMMY_ATOM=C6_H10_H8_H9_O1
REMARK TORSION=H6_C5_C4_C3
REMARK TORSION=C5_C4_C3_C2
REMARK TORSION=C4_C3_C2_C1
MODEL 0
HETATM    1  C1  UNL     1       3.919   0.571  -0.285  1.00  0.00    -0.154 C 
HETATM    2  C2  UNL     1       2.786   0.177  -0.165  1.00  0.00    -0.117 C 
HETATM    3  C3  UNL     1       1.407  -0.303  -0.018  1.00  0.00    -0.008 C 
HETATM    4  C4  UNL     1       0.420   0.725  -0.580  1.00  0.00    -0.036 C 
HETATM    5  C5  UNL     1      -1.027   0.243  -0.463  1.00  0.00     0.020 C 
HETATM    6  O1  UNL     1      -1.382   0.131   0.900  1.00  0.00    -0.396 OA
HETATM    7  C6  UNL     1      -2.710  -0.333   0.999  1.00  0.00     0.004 C 
HETATM    8  H1  UNL     1       4.913   0.917  -0.392  1.00  0.00     0.166 H 
HETATM    9  H2  UNL     1       1.207  -0.478   1.061  1.00  0.00     0.051 H 
HETATM   10  H3  UNL     1       1.306  -1.266  -0.563  1.00  0.00     0.051 H 
HETATM   11  H4  UNL     1       0.648   0.906  -1.654  1.00  0.00     0.037 H 
HETATM   12  H5  UNL     1       0.528   1.689  -0.035  1.00  0.00     0.037 H 
HETATM   13  H6  UNL     1      -1.123  -0.737  -0.986  1.00  0.00     0.074 H 
HETATM   14  H7  UNL     1      -1.677   0.990  -0.973  1.00  0.00     0.074 H 
HETATM   15  H8  UNL     1      -3.422   0.376   0.522  1.00  0.00     0.066 H 
HETATM   16  H9  UNL     1      -2.979  -0.406   2.073  1.00  0.00     0.066 H 
HETATM   17  H10 UNL     1      -2.815  -1.348   0.556  1.00  0.00     0.066 H 
TER      18      UNL     1 
ENDMDL
