REMARK FAKE_HEAD_ATOM=C4_O2
REMARK REAL_HEAD_ATOM=C1_C2
REMARK DUMMY_ATOM=C4_H2_H3_H4_O2
REMARK TORSION=O1_C1_C2_C3
MODEL 0
HETATM    1  O1  UNL     1       0.077  -1.540   0.671  1.00  0.00    -0.249 OA
HETATM    2  C1  UNL     1       0.416  -0.452   0.134  1.00  0.00     0.337 C 
HETATM    3  C2  UNL     1       1.775  -0.261  -0.284  1.00  0.00    -0.009 C 
HETATM    4  C3  UNL     1       2.917  -0.099  -0.635  1.00  0.00    -0.144 C 
HETATM    5  O2  UNL     1      -0.514   0.572  -0.061  1.00  0.00    -0.316 OA
HETATM    6  C4  UNL     1      -1.877   0.453   0.328  1.00  0.00     0.014 C 
HETATM    7  H1  UNL     1       3.919   0.042  -0.943  1.00  0.00     0.167 H 
HETATM    8  H2  UNL     1      -2.413   1.390   0.071  1.00  0.00     0.067 H 
HETATM    9  H3  UNL     1      -2.354  -0.393  -0.211  1.00  0.00     0.067 H 
HETATM   10  H4  UNL     1      -1.947   0.287   1.423  1.00  0.00     0.067 H 
TER      11      UNL     1 
ENDMDL
