REMARK FAKE_HEAD_ATOM=C4_O1
REMARK REAL_HEAD_ATOM=C3_C2
REMARK DUMMY_ATOM=C4_H7_H8_H9_O1
REMARK TORSION=C5_C3_C2_C1
MODEL 0
HETATM    1  C1  UNL     1      -1.991  -0.765  -0.470  1.00  0.00    -0.074 C 
HETATM    2  C2  UNL     1      -1.301   0.291   0.393  1.00  0.00    -0.045 C 
HETATM    3  C3  UNL     1       0.196   0.404   0.063  1.00  0.00     0.034 C 
HETATM    4  O1  UNL     1       0.837  -0.816   0.402  1.00  0.00    -0.391 OA
HETATM    5  C4  UNL     1       1.786  -1.169  -0.580  1.00  0.00     0.004 C 
HETATM    6  C5  UNL     1       0.825   1.542   0.872  1.00  0.00    -0.052 C 
HETATM    7  H1  UNL     1      -1.882  -0.515  -1.547  1.00  0.00     0.027 H 
HETATM    8  H2  UNL     1      -3.072  -0.798  -0.221  1.00  0.00     0.027 H 
HETATM    9  H3  UNL     1      -1.554  -1.768  -0.280  1.00  0.00     0.027 H 
HETATM   10  H4  UNL     1      -1.434   0.025   1.465  1.00  0.00     0.036 H 
HETATM   11  H5  UNL     1      -1.799   1.269   0.214  1.00  0.00     0.036 H 
HETATM   12  H6  UNL     1       0.280   0.667  -1.021  1.00  0.00     0.082 H 
HETATM   13  H7  UNL     1       2.320  -2.082  -0.244  1.00  0.00     0.066 H 
HETATM   14  H8  UNL     1       1.286  -1.405  -1.545  1.00  0.00     0.066 H 
HETATM   15  H9  UNL     1       2.543  -0.366  -0.720  1.00  0.00     0.066 H 
HETATM   16  H10 UNL     1       0.326   2.506   0.636  1.00  0.00     0.030 H 
HETATM   17  H11 UNL     1       0.732   1.342   1.961  1.00  0.00     0.030 H 
HETATM   18  H12 UNL     1       1.902   1.637   0.620  1.00  0.00     0.030 H 
TER      19      UNL     1 
ENDMDL
