REMARK FAKE_HEAD_ATOM=C5_O1
REMARK REAL_HEAD_ATOM=C4_C3
REMARK DUMMY_ATOM=C5_H5_H6_H7_O1
REMARK TORSION=H3_C4_C3_C2
REMARK TORSION=C3_C2_C1_CL1
MODEL 0
HETATM    1 CL1  UNL     1      -3.557  -1.775   0.173  1.00  0.00    -0.117 Cl
HETATM    2  C1  UNL     1      -2.834  -0.252   0.739  1.00  0.00     0.057 C 
HETATM    3  C2  UNL     1      -1.552  -0.041   0.067  1.00  0.00    -0.089 C 
HETATM    4  C3  UNL     1      -0.495   0.134  -0.486  1.00  0.00    -0.079 C 
HETATM    5  C4  UNL     1       0.792   0.345  -1.158  1.00  0.00     0.073 C 
HETATM    6  O1  UNL     1       1.746   0.847  -0.242  1.00  0.00    -0.384 OA
HETATM    7  C5  UNL     1       2.420  -0.218   0.393  1.00  0.00     0.005 C 
HETATM    8  H1  UNL     1      -3.517   0.590   0.507  1.00  0.00     0.075 H 
HETATM    9  H2  UNL     1      -2.672  -0.305   1.835  1.00  0.00     0.075 H 
HETATM   10  H3  UNL     1       0.642   1.104  -1.953  1.00  0.00     0.093 H 
HETATM   11  H4  UNL     1       1.115  -0.594  -1.666  1.00  0.00     0.093 H 
HETATM   12  H5  UNL     1       3.097   0.202   1.165  1.00  0.00     0.066 H 
HETATM   13  H6  UNL     1       3.046  -0.781  -0.334  1.00  0.00     0.066 H 
HETATM   14  H7  UNL     1       1.709  -0.904   0.906  1.00  0.00     0.066 H 
TER      15      UNL     1 
ENDMDL
