REMARK FAKE_HEAD_ATOM=C9_O2
REMARK REAL_HEAD_ATOM=C8_C7
REMARK DUMMY_ATOM=C9_H18_H19_H20_O2
REMARK TORSION=H16_C8_C7_C6
REMARK TORSION=C8_C7_C6_C5
REMARK TORSION=C7_C6_C5_C4
REMARK TORSION=C6_C5_C4_C3
REMARK TORSION=C5_C4_C3_C2
REMARK TORSION=C4_C3_C2_C1
REMARK TORSION=C3_C2_C1_O1
REMARK TORSION=C2_C1_O1_H1
MODEL 0
HETATM    1  O1  UNL     1      -4.889   0.768  -1.259  1.00  0.00    -0.401 OA
HETATM    2  C1  UNL     1      -4.210   1.292  -0.149  1.00  0.00     0.017 C 
HETATM    3  C2  UNL     1      -3.109   0.334   0.315  1.00  0.00    -0.045 C 
HETATM    4  C3  UNL     1      -1.968   0.233  -0.711  1.00  0.00    -0.063 C 
HETATM    5  C4  UNL     1      -0.870  -0.753  -0.278  1.00  0.00    -0.065 C 
HETATM    6  C5  UNL     1       0.057  -0.167   0.801  1.00  0.00    -0.065 C 
HETATM    7  C6  UNL     1       1.101  -1.180   1.306  1.00  0.00    -0.063 C 
HETATM    8  C7  UNL     1       2.090  -1.688   0.238  1.00  0.00    -0.045 C 
HETATM    9  C8  UNL     1       2.907  -0.578  -0.431  1.00  0.00     0.019 C 
HETATM   10  O2  UNL     1       3.590   0.175   0.550  1.00  0.00    -0.396 OA
HETATM   11  C9  UNL     1       4.292   1.227  -0.073  1.00  0.00     0.004 C 
HETATM   12  H1  UNL     1      -4.444   1.130  -2.068  1.00  0.00     0.209 HD
HETATM   13  H2  UNL     1      -4.941   1.419   0.678  1.00  0.00     0.073 H 
HETATM   14  H3  UNL     1      -3.784   2.299  -0.371  1.00  0.00     0.073 H 
HETATM   15  H4  UNL     1      -2.714   0.710   1.282  1.00  0.00     0.036 H 
HETATM   16  H5  UNL     1      -3.551  -0.671   0.490  1.00  0.00     0.036 H 
HETATM   17  H6  UNL     1      -1.525   1.237  -0.890  1.00  0.00     0.033 H 
HETATM   18  H7  UNL     1      -2.386  -0.128  -1.675  1.00  0.00     0.033 H 
HETATM   19  H8  UNL     1      -0.266  -0.993  -1.178  1.00  0.00     0.033 H 
HETATM   20  H9  UNL     1      -1.330  -1.699   0.083  1.00  0.00     0.033 H 
HETATM   21  H10 UNL     1       0.560   0.745   0.418  1.00  0.00     0.033 H 
HETATM   22  H11 UNL     1      -0.548   0.142   1.678  1.00  0.00     0.033 H 
HETATM   23  H12 UNL     1       1.674  -0.711   2.135  1.00  0.00     0.033 H 
HETATM   24  H13 UNL     1       0.571  -2.055   1.740  1.00  0.00     0.033 H 
HETATM   25  H14 UNL     1       1.550  -2.269  -0.538  1.00  0.00     0.036 H 
HETATM   26  H15 UNL     1       2.796  -2.393   0.730  1.00  0.00     0.036 H 
HETATM   27  H16 UNL     1       3.635  -1.062  -1.121  1.00  0.00     0.074 H 
HETATM   28  H17 UNL     1       2.227   0.063  -1.037  1.00  0.00     0.074 H 
HETATM   29  H18 UNL     1       3.594   1.934  -0.573  1.00  0.00     0.066 H 
HETATM   30  H19 UNL     1       4.843   1.793   0.705  1.00  0.00     0.066 H 
HETATM   31  H20 UNL     1       5.041   0.839  -0.800  1.00  0.00     0.066 H 
TER      32      UNL     1 
ENDMDL
