REMARK FAKE_HEAD_ATOM=C3_O1
REMARK REAL_HEAD_ATOM=C2_C1
REMARK DUMMY_ATOM=C3_H4_H5_H6_O1
REMARK TORSION=H2_C2_C1_CL1
MODEL 0
HETATM    1 CL1  UNL     1      -2.265  -0.479  -1.523  1.00  0.00    -0.106 Cl
HETATM    2  C1  UNL     1      -1.753   0.325  -0.015  1.00  0.00     0.109 C 
HETATM    3 CL2  UNL     1      -1.799   2.093  -0.244  1.00  0.00    -0.106 Cl
HETATM    4  C2  UNL     1      -0.353  -0.131   0.391  1.00  0.00     0.047 C 
HETATM    5  O1  UNL     1       0.575   0.205  -0.621  1.00  0.00    -0.393 OA
HETATM    6  C3  UNL     1       1.862  -0.221  -0.234  1.00  0.00     0.004 C 
HETATM    7  H1  UNL     1      -2.472   0.056   0.787  1.00  0.00     0.092 H 
HETATM    8  H2  UNL     1      -0.088   0.370   1.351  1.00  0.00     0.078 H 
HETATM    9  H3  UNL     1      -0.378  -1.233   0.554  1.00  0.00     0.078 H 
HETATM   10  H4  UNL     1       2.579   0.048  -1.037  1.00  0.00     0.066 H 
HETATM   11  H5  UNL     1       1.900  -1.326  -0.106  1.00  0.00     0.066 H 
HETATM   12  H6  UNL     1       2.192   0.291   0.697  1.00  0.00     0.066 H 
TER      13      UNL     1 
ENDMDL
