REMARK FAKE_HEAD_ATOM=C5_O1
REMARK REAL_HEAD_ATOM=C3_C2
REMARK DUMMY_ATOM=C5_H12_H13_H14_O1
REMARK TORSION=H6_C3_C2_C1
REMARK TORSION=H6_C3_C4_N1
MODEL 0
HETATM    1  C1  UNL     1      -1.015   2.182   0.495  1.00  0.00    -0.074 C 
HETATM    2  C2  UNL     1      -0.023   1.126   0.981  1.00  0.00    -0.043 C 
HETATM    3  C3  UNL     1      -0.059  -0.138   0.101  1.00  0.00     0.060 C 
HETATM    4  C4  UNL     1       0.944  -1.200   0.605  1.00  0.00     0.103 C 
HETATM    5  N1  UNL     1       2.338  -0.797   0.397  1.00  0.00    -0.077 N 
HETATM    6  O1  UNL     1      -1.365  -0.691   0.160  1.00  0.00    -0.389 OA
HETATM    7  C5  UNL     1      -1.795  -1.101  -1.119  1.00  0.00     0.005 C 
HETATM    8  H1  UNL     1      -2.056   1.804   0.569  1.00  0.00     0.027 H 
HETATM    9  H2  UNL     1      -0.799   2.458  -0.560  1.00  0.00     0.027 H 
HETATM   10  H3  UNL     1      -0.926   3.092   1.124  1.00  0.00     0.027 H 
HETATM   11  H4  UNL     1       0.990   1.580   0.957  1.00  0.00     0.036 H 
HETATM   12  H5  UNL     1      -0.263   0.863   2.034  1.00  0.00     0.036 H 
HETATM   13  H6  UNL     1       0.240   0.171  -0.932  1.00  0.00     0.085 H 
HETATM   14  H7  UNL     1       0.771  -1.406   1.685  1.00  0.00     0.079 H 
HETATM   15  H8  UNL     1       0.764  -2.150   0.056  1.00  0.00     0.079 H 
HETATM   16  H9  UNL     1       2.959  -1.614   0.596  1.00  0.00     0.274 HD
HETATM   17  H10 UNL     1       2.489  -0.497  -0.593  1.00  0.00     0.274 HD
HETATM   18  H11 UNL     1       2.597  -0.025   1.050  1.00  0.00     0.274 HD
HETATM   19  H12 UNL     1      -1.087  -1.833  -1.570  1.00  0.00     0.066 H 
HETATM   20  H13 UNL     1      -2.780  -1.601  -1.019  1.00  0.00     0.066 H 
HETATM   21  H14 UNL     1      -1.926  -0.224  -1.790  1.00  0.00     0.066 H 
TER      22      UNL     1 
ENDMDL
