REMARK FAKE_HEAD_ATOM=C1_O1
REMARK REAL_HEAD_ATOM=C2_C3
REMARK DUMMY_ATOM=C1_H1_H2_H3_O1
REMARK TORSION=H4_C2_C3_C4
REMARK TORSION=C2_C3_C4_C5
MODEL 0
HETATM    1  C1  UNL     1       2.469   1.163  -0.337  1.00  0.00     0.004 C 
HETATM    2  O1  UNL     1       2.018  -0.175  -0.331  1.00  0.00    -0.391 OA
HETATM    3  C2  UNL     1       0.712  -0.265   0.214  1.00  0.00     0.034 C 
HETATM    4  C3  UNL     1      -0.309  -0.327  -0.946  1.00  0.00    -0.042 C 
HETATM    5  C4  UNL     1      -1.786  -0.395  -0.515  1.00  0.00    -0.066 C 
HETATM    6  C5  UNL     1      -2.245   0.848   0.248  1.00  0.00    -0.076 C 
HETATM    7  C6  UNL     1       0.654  -1.524   1.084  1.00  0.00    -0.052 C 
HETATM    8  H1  UNL     1       1.766   1.829  -0.884  1.00  0.00     0.066 H 
HETATM    9  H2  UNL     1       2.622   1.530   0.701  1.00  0.00     0.066 H 
HETATM   10  H3  UNL     1       3.448   1.204  -0.858  1.00  0.00     0.066 H 
HETATM   11  H4  UNL     1       0.468   0.596   0.881  1.00  0.00     0.082 H 
HETATM   12  H5  UNL     1      -0.087  -1.217  -1.575  1.00  0.00     0.036 H 
HETATM   13  H6  UNL     1      -0.175   0.564  -1.597  1.00  0.00     0.036 H 
HETATM   14  H7  UNL     1      -2.407  -0.484  -1.432  1.00  0.00     0.032 H 
HETATM   15  H8  UNL     1      -1.979  -1.302   0.094  1.00  0.00     0.032 H 
HETATM   16  H9  UNL     1      -1.790   0.878   1.260  1.00  0.00     0.027 H 
HETATM   17  H10 UNL     1      -3.348   0.818   0.370  1.00  0.00     0.027 H 
HETATM   18  H11 UNL     1      -1.976   1.770  -0.310  1.00  0.00     0.027 H 
HETATM   19  H12 UNL     1       0.754  -2.438   0.459  1.00  0.00     0.030 H 
HETATM   20  H13 UNL     1       1.486  -1.507   1.820  1.00  0.00     0.030 H 
HETATM   21  H14 UNL     1      -0.297  -1.568   1.654  1.00  0.00     0.030 H 
TER      22      UNL     1 
ENDMDL
