REMARK FAKE_HEAD_ATOM=C3_O1
REMARK REAL_HEAD_ATOM=C2_C1
REMARK DUMMY_ATOM=C3_H4_H5_H6_O1
REMARK TORSION=C1_C2_C4_C5
MODEL 0
HETATM    1  C1  UNL     1       0.740  -1.732  -0.257  1.00  0.00    -0.038 C 
HETATM    2  C2  UNL     1       0.156  -0.329  -0.041  1.00  0.00     0.115 C 
HETATM    3  O1  UNL     1      -1.095  -0.289  -0.725  1.00  0.00    -0.373 OA
HETATM    4  C3  UNL     1      -1.825   0.903  -0.502  1.00  0.00     0.006 C 
HETATM    5  C4  UNL     1       1.106   0.645  -0.624  1.00  0.00    -0.080 C 
HETATM    6  C5  UNL     1       1.880   1.438  -1.100  1.00  0.00    -0.151 C 
HETATM    7  C6  UNL     1       0.017  -0.086   1.480  1.00  0.00    -0.038 C 
HETATM    8  H1  UNL     1       1.738  -1.831   0.225  1.00  0.00     0.033 H 
HETATM    9  H2  UNL     1       0.062  -2.500   0.175  1.00  0.00     0.033 H 
HETATM   10  H3  UNL     1       0.851  -1.943  -1.343  1.00  0.00     0.033 H 
HETATM   11  H4  UNL     1      -2.611   0.983  -1.280  1.00  0.00     0.066 H 
HETATM   12  H5  UNL     1      -2.340   0.864   0.482  1.00  0.00     0.066 H 
HETATM   13  H6  UNL     1      -1.197   1.818  -0.574  1.00  0.00     0.066 H 
HETATM   14  H7  UNL     1       2.559   2.135  -1.516  1.00  0.00     0.166 H 
HETATM   15  H8  UNL     1      -0.764  -0.753   1.904  1.00  0.00     0.033 H 
HETATM   16  H9  UNL     1      -0.257   0.968   1.698  1.00  0.00     0.033 H 
HETATM   17  H10 UNL     1       0.978  -0.292   2.000  1.00  0.00     0.033 H 
TER      18      UNL     1 
ENDMDL
