REMARK FAKE_HEAD_ATOM=C3_O4
REMARK REAL_HEAD_ATOM=C1_C2
REMARK DUMMY_ATOM=C3_H1_H2_H3_O4
REMARK TORSION=O1_C1_C2_O2
MODEL 0
HETATM    1  O1  UNL     1       0.395  -1.481   0.533  1.00  0.00    -0.252 OA
HETATM    2  C1  UNL     1       0.650  -0.338   0.064  1.00  0.00     0.360 C 
HETATM    3  C2  UNL     1       2.037   0.036  -0.223  1.00  0.00     0.277 C 
HETATM    4  O2  UNL     1       3.068  -0.863   0.019  1.00  0.00    -0.640 OA
HETATM    5  O3  UNL     1       2.301   1.175  -0.691  1.00  0.00    -0.640 OA
HETATM    6  O4  UNL     1      -0.379   0.576  -0.184  1.00  0.00    -0.318 OA
HETATM    7  C3  UNL     1      -1.746   0.278   0.072  1.00  0.00     0.014 C 
HETATM    8  H1  UNL     1      -2.065  -0.595  -0.536  1.00  0.00     0.067 H 
HETATM    9  H2  UNL     1      -1.892   0.058   1.150  1.00  0.00     0.067 H 
HETATM   10  H3  UNL     1      -2.368   1.154  -0.204  1.00  0.00     0.067 H 
TER      11      UNL     1 
ENDMDL
