REMARK FAKE_HEAD_ATOM=C3_O2
REMARK REAL_HEAD_ATOM=C2_C1
REMARK DUMMY_ATOM=C3_H4_H5_H6_O2
REMARK TORSION=O3_C2_C1_O1
MODEL 0
HETATM    1  O1  UNL     1       2.165   0.030   0.989  1.00  0.00    -0.391 OA
HETATM    2  C1  UNL     1       1.596  -0.091  -0.284  1.00  0.00     0.097 C 
HETATM    3  C2  UNL     1       0.149  -0.425  -0.147  1.00  0.00     0.282 C 
HETATM    4  O2  UNL     1      -0.792   0.607  -0.076  1.00  0.00    -0.325 OA
HETATM    5  C3  UNL     1      -2.185   0.363   0.076  1.00  0.00     0.013 C 
HETATM    6  O3  UNL     1      -0.209  -1.631  -0.054  1.00  0.00    -0.263 OA
HETATM    7  H1  UNL     1       3.121   0.254   0.843  1.00  0.00     0.210 HD
HETATM    8  H2  UNL     1       1.701   0.868  -0.838  1.00  0.00     0.089 H 
HETATM    9  H3  UNL     1       2.113  -0.894  -0.856  1.00  0.00     0.089 H 
HETATM   10  H4  UNL     1      -2.724   1.332   0.104  1.00  0.00     0.067 H 
HETATM   11  H5  UNL     1      -2.562  -0.233  -0.782  1.00  0.00     0.067 H 
HETATM   12  H6  UNL     1      -2.375  -0.182   1.024  1.00  0.00     0.067 H 
TER      13      UNL     1 
ENDMDL
