REMARK FAKE_HEAD_ATOM=C7_O1
REMARK REAL_HEAD_ATOM=C6_C5
REMARK DUMMY_ATOM=C7_H13_H14_H15_O1
REMARK TORSION=H11_C6_C5_C4
REMARK TORSION=C6_C5_C4_C3
REMARK TORSION=C5_C4_C3_C2
REMARK TORSION=C4_C3_C2_C1
MODEL 0
HETATM    1  C1  UNL     1      -2.376   1.553   0.462  1.00  0.00    -0.073 C 
HETATM    2  C2  UNL     1      -2.336   0.330  -0.467  1.00  0.00    -0.061 C 
HETATM    3  C3  UNL     1      -1.249  -0.683  -0.042  1.00  0.00    -0.062 C 
HETATM    4  C4  UNL     1       0.177  -0.145  -0.242  1.00  0.00    -0.063 C 
HETATM    5  C5  UNL     1       1.220  -1.234   0.045  1.00  0.00    -0.045 C 
HETATM    6  C6  UNL     1       2.647  -0.721  -0.156  1.00  0.00     0.019 C 
HETATM    7  O1  UNL     1       2.931   0.281   0.799  1.00  0.00    -0.396 OA
HETATM    8  C7  UNL     1       4.238   0.766   0.592  1.00  0.00     0.004 C 
HETATM    9  C8  UNL     1      -3.710  -0.352  -0.486  1.00  0.00    -0.073 C 
HETATM   10  H1  UNL     1      -1.443   2.146   0.371  1.00  0.00     0.028 H 
HETATM   11  H2  UNL     1      -3.218   2.221   0.182  1.00  0.00     0.028 H 
HETATM   12  H3  UNL     1      -2.508   1.239   1.520  1.00  0.00     0.028 H 
HETATM   13  H4  UNL     1      -2.120   0.681  -1.500  1.00  0.00     0.038 H 
HETATM   14  H5  UNL     1      -1.362  -1.605  -0.655  1.00  0.00     0.033 H 
HETATM   15  H6  UNL     1      -1.393  -0.968   1.024  1.00  0.00     0.033 H 
HETATM   16  H7  UNL     1       0.295   0.209  -1.289  1.00  0.00     0.033 H 
HETATM   17  H8  UNL     1       0.352   0.709   0.445  1.00  0.00     0.033 H 
HETATM   18  H9  UNL     1       1.054  -2.093  -0.642  1.00  0.00     0.036 H 
HETATM   19  H10 UNL     1       1.107  -1.599   1.089  1.00  0.00     0.036 H 
HETATM   20  H11 UNL     1       3.341  -1.583  -0.030  1.00  0.00     0.074 H 
HETATM   21  H12 UNL     1       2.745  -0.327  -1.194  1.00  0.00     0.074 H 
HETATM   22  H13 UNL     1       4.993  -0.042   0.715  1.00  0.00     0.066 H 
HETATM   23  H14 UNL     1       4.451   1.543   1.355  1.00  0.00     0.066 H 
HETATM   24  H15 UNL     1       4.337   1.242  -0.409  1.00  0.00     0.066 H 
HETATM   25  H16 UNL     1      -3.705  -1.209  -1.194  1.00  0.00     0.028 H 
HETATM   26  H17 UNL     1      -3.977  -0.725   0.526  1.00  0.00     0.028 H 
HETATM   27  H18 UNL     1      -4.491   0.363  -0.823  1.00  0.00     0.028 H 
TER      28      UNL     1 
ENDMDL
