REMARK FAKE_HEAD_ATOM=C16_O1
REMARK REAL_HEAD_ATOM=C15_C14
REMARK DUMMY_ATOM=C16_H31_H32_H33_O1
REMARK TORSION=H30_C15_C14_C13
REMARK TORSION=C15_C14_C13_C12
REMARK TORSION=C14_C13_C12_C11
REMARK TORSION=C13_C12_C11_C10
REMARK TORSION=C12_C11_C10_C9
REMARK TORSION=C11_C10_C9_C8
REMARK TORSION=C10_C9_C8_C7
REMARK TORSION=C9_C8_C7_C6
REMARK TORSION=C8_C7_C6_C5
REMARK TORSION=C7_C6_C5_C4
REMARK TORSION=C6_C5_C4_C3
REMARK TORSION=C5_C4_C3_C2
REMARK TORSION=C4_C3_C2_C1
MODEL 0
HETATM    1  C1  UNL     1      -7.944   0.100  -0.854  1.00  0.00    -0.077 C 
HETATM    2  C2  UNL     1      -6.999   0.993  -0.051  1.00  0.00    -0.069 C 
HETATM    3  C3  UNL     1      -5.837   0.213   0.584  1.00  0.00    -0.065 C 
HETATM    4  C4  UNL     1      -4.804  -0.254  -0.456  1.00  0.00    -0.065 C 
HETATM    5  C5  UNL     1      -3.623  -1.004   0.182  1.00  0.00    -0.065 C 
HETATM    6  C6  UNL     1      -2.605  -0.054   0.836  1.00  0.00    -0.065 C 
HETATM    7  C7  UNL     1      -1.465  -0.802   1.551  1.00  0.00    -0.065 C 
HETATM    8  C8  UNL     1      -0.572  -1.662   0.634  1.00  0.00    -0.065 C 
HETATM    9  C9  UNL     1       0.082  -0.908  -0.541  1.00  0.00    -0.065 C 
HETATM   10  C10 UNL     1       0.922   0.320  -0.144  1.00  0.00    -0.065 C 
HETATM   11  C11 UNL     1       2.140  -0.047   0.719  1.00  0.00    -0.065 C 
HETATM   12  C12 UNL     1       2.994   1.178   1.097  1.00  0.00    -0.065 C 
HETATM   13  C13 UNL     1       3.651   1.913  -0.089  1.00  0.00    -0.063 C 
HETATM   14  C14 UNL     1       4.490   1.027  -1.032  1.00  0.00    -0.041 C 
HETATM   15  C15 UNL     1       5.639   0.246  -0.352  1.00  0.00     0.034 C 
HETATM   16  O1  UNL     1       6.290  -0.553  -1.327  1.00  0.00    -0.391 OA
HETATM   17  C16 UNL     1       5.808  -1.879  -1.293  1.00  0.00     0.004 C 
HETATM   18  C17 UNL     1       6.680   1.193   0.250  1.00  0.00    -0.052 C 
HETATM   19  H1  UNL     1      -8.824   0.694  -1.180  1.00  0.00     0.027 H 
HETATM   20  H2  UNL     1      -8.302  -0.748  -0.232  1.00  0.00     0.027 H 
HETATM   21  H3  UNL     1      -7.441  -0.293  -1.761  1.00  0.00     0.027 H 
HETATM   22  H4  UNL     1      -6.606   1.803  -0.704  1.00  0.00     0.032 H 
HETATM   23  H5  UNL     1      -7.585   1.473   0.763  1.00  0.00     0.032 H 
HETATM   24  H6  UNL     1      -6.234  -0.662   1.144  1.00  0.00     0.033 H 
HETATM   25  H7  UNL     1      -5.345   0.886   1.317  1.00  0.00     0.033 H 
HETATM   26  H8  UNL     1      -4.429   0.614  -1.041  1.00  0.00     0.033 H 
HETATM   27  H9  UNL     1      -5.298  -0.950  -1.167  1.00  0.00     0.033 H 
HETATM   28  H10 UNL     1      -3.114  -1.573  -0.626  1.00  0.00     0.033 H 
HETATM   29  H11 UNL     1      -3.998  -1.739   0.928  1.00  0.00     0.033 H 
HETATM   30  H12 UNL     1      -3.117   0.567   1.600  1.00  0.00     0.033 H 
HETATM   31  H13 UNL     1      -2.192   0.643   0.077  1.00  0.00     0.033 H 
HETATM   32  H14 UNL     1      -0.834  -0.064   2.090  1.00  0.00     0.033 H 
HETATM   33  H15 UNL     1      -1.905  -1.463   2.330  1.00  0.00     0.033 H 
HETATM   34  H16 UNL     1       0.219  -2.135   1.253  1.00  0.00     0.033 H 
HETATM   35  H17 UNL     1      -1.170  -2.504   0.224  1.00  0.00     0.033 H 
HETATM   36  H18 UNL     1      -0.707  -0.587  -1.254  1.00  0.00     0.033 H 
HETATM   37  H19 UNL     1       0.731  -1.620  -1.096  1.00  0.00     0.033 H 
HETATM   38  H20 UNL     1       0.292   1.068   0.381  1.00  0.00     0.033 H 
HETATM   39  H21 UNL     1       1.271   0.791  -1.087  1.00  0.00     0.033 H 
HETATM   40  H22 UNL     1       2.761  -0.808   0.203  1.00  0.00     0.033 H 
HETATM   41  H23 UNL     1       1.789  -0.502   1.669  1.00  0.00     0.033 H 
HETATM   42  H24 UNL     1       2.355   1.903   1.647  1.00  0.00     0.033 H 
HETATM   43  H25 UNL     1       3.782   0.858   1.811  1.00  0.00     0.033 H 
HETATM   44  H26 UNL     1       4.286   2.731   0.310  1.00  0.00     0.033 H 
HETATM   45  H27 UNL     1       2.862   2.415  -0.688  1.00  0.00     0.033 H 
HETATM   46  H28 UNL     1       4.919   1.677  -1.827  1.00  0.00     0.036 H 
HETATM   47  H29 UNL     1       3.815   0.316  -1.553  1.00  0.00     0.036 H 
HETATM   48  H30 UNL     1       5.234  -0.362   0.491  1.00  0.00     0.082 H 
HETATM   49  H31 UNL     1       6.266  -2.444  -2.130  1.00  0.00     0.066 H 
HETATM   50  H32 UNL     1       4.704  -1.917  -1.424  1.00  0.00     0.066 H 
HETATM   51  H33 UNL     1       6.102  -2.380  -0.345  1.00  0.00     0.066 H 
HETATM   52  H34 UNL     1       6.254   1.755   1.107  1.00  0.00     0.030 H 
HETATM   53  H35 UNL     1       7.047   1.910  -0.515  1.00  0.00     0.030 H 
HETATM   54  H36 UNL     1       7.544   0.606   0.627  1.00  0.00     0.030 H 
TER      55      UNL     1 
ENDMDL
