REMARK FAKE_HEAD_ATOM=C17_O2
REMARK REAL_HEAD_ATOM=C16_C15
REMARK DUMMY_ATOM=C17_H34_H35_H36_O2
REMARK TORSION=H32_C16_C15_C14
REMARK TORSION=C16_C15_C14_C13
REMARK TORSION=C15_C14_C13_C12
REMARK TORSION=C14_C13_C12_C11
REMARK TORSION=C13_C12_C11_C10
REMARK TORSION=C12_C11_C10_C9
REMARK TORSION=C11_C10_C9_C8
REMARK TORSION=C10_C9_C8_C7
REMARK TORSION=C9_C8_C7_C6
REMARK TORSION=C8_C7_C6_C5
REMARK TORSION=C7_C6_C5_C4
REMARK TORSION=C6_C5_C4_C3
REMARK TORSION=C5_C4_C3_C2
REMARK TORSION=C4_C3_C2_C1
REMARK TORSION=C3_C2_C1_O1
REMARK TORSION=C2_C1_O1_H1
MODEL 0
HETATM    1  O1  UNL     1       6.084  -2.354  -2.012  1.00  0.00    -0.401 OA
HETATM    2  C1  UNL     1       5.663  -2.144  -0.692  1.00  0.00     0.017 C 
HETATM    3  C2  UNL     1       6.216  -0.823  -0.138  1.00  0.00    -0.045 C 
HETATM    4  C3  UNL     1       5.883   0.406  -1.007  1.00  0.00    -0.063 C 
HETATM    5  C4  UNL     1       4.380   0.672  -1.208  1.00  0.00    -0.065 C 
HETATM    6  C5  UNL     1       3.640   0.958   0.108  1.00  0.00    -0.065 C 
HETATM    7  C6  UNL     1       2.188   1.380  -0.160  1.00  0.00    -0.065 C 
HETATM    8  C7  UNL     1       1.427   1.737   1.131  1.00  0.00    -0.065 C 
HETATM    9  C8  UNL     1       0.972   0.509   1.944  1.00  0.00    -0.065 C 
HETATM   10  C9  UNL     1      -0.234  -0.229   1.319  1.00  0.00    -0.065 C 
HETATM   11  C10 UNL     1      -1.561   0.023   2.061  1.00  0.00    -0.065 C 
HETATM   12  C11 UNL     1      -2.087   1.466   1.958  1.00  0.00    -0.065 C 
HETATM   13  C12 UNL     1      -2.495   1.908   0.539  1.00  0.00    -0.065 C 
HETATM   14  C13 UNL     1      -3.698   1.126  -0.033  1.00  0.00    -0.065 C 
HETATM   15  C14 UNL     1      -3.268   0.079  -1.075  1.00  0.00    -0.063 C 
HETATM   16  C15 UNL     1      -4.463  -0.677  -1.678  1.00  0.00    -0.045 C 
HETATM   17  C16 UNL     1      -5.053  -1.716  -0.714  1.00  0.00     0.019 C 
HETATM   18  O2  UNL     1      -6.015  -2.510  -1.383  1.00  0.00    -0.396 OA
HETATM   19  C17 UNL     1      -7.312  -2.000  -1.165  1.00  0.00     0.004 C 
HETATM   20  H1  UNL     1       7.045  -2.602  -1.968  1.00  0.00     0.209 HD
HETATM   21  H2  UNL     1       4.554  -2.138  -0.660  1.00  0.00     0.073 H 
HETATM   22  H3  UNL     1       6.001  -2.985  -0.045  1.00  0.00     0.073 H 
HETATM   23  H4  UNL     1       5.843  -0.673   0.897  1.00  0.00     0.036 H 
HETATM   24  H5  UNL     1       7.322  -0.907  -0.067  1.00  0.00     0.036 H 
HETATM   25  H6  UNL     1       6.357   0.283  -2.005  1.00  0.00     0.033 H 
HETATM   26  H7  UNL     1       6.347   1.302  -0.541  1.00  0.00     0.033 H 
HETATM   27  H8  UNL     1       3.905  -0.182  -1.734  1.00  0.00     0.033 H 
HETATM   28  H9  UNL     1       4.283   1.558  -1.874  1.00  0.00     0.033 H 
HETATM   29  H10 UNL     1       4.166   1.769   0.657  1.00  0.00     0.033 H 
HETATM   30  H11 UNL     1       3.647   0.042   0.733  1.00  0.00     0.033 H 
HETATM   31  H12 UNL     1       2.196   2.282  -0.811  1.00  0.00     0.033 H 
HETATM   32  H13 UNL     1       1.660   0.576  -0.717  1.00  0.00     0.033 H 
HETATM   33  H14 UNL     1       2.073   2.375   1.772  1.00  0.00     0.033 H 
HETATM   34  H15 UNL     1       0.543   2.353   0.866  1.00  0.00     0.033 H 
HETATM   35  H16 UNL     1       1.818  -0.201   2.054  1.00  0.00     0.033 H 
HETATM   36  H17 UNL     1       0.727   0.841   2.976  1.00  0.00     0.033 H 
HETATM   37  H18 UNL     1      -0.032  -1.321   1.374  1.00  0.00     0.033 H 
HETATM   38  H19 UNL     1      -0.347   0.003   0.242  1.00  0.00     0.033 H 
HETATM   39  H20 UNL     1      -1.421  -0.225   3.136  1.00  0.00     0.033 H 
HETATM   40  H21 UNL     1      -2.331  -0.682   1.685  1.00  0.00     0.033 H 
HETATM   41  H22 UNL     1      -2.969   1.565   2.628  1.00  0.00     0.033 H 
HETATM   42  H23 UNL     1      -1.322   2.168   2.351  1.00  0.00     0.033 H 
HETATM   43  H24 UNL     1      -1.626   1.876  -0.150  1.00  0.00     0.033 H 
HETATM   44  H25 UNL     1      -2.785   2.979   0.606  1.00  0.00     0.033 H 
HETATM   45  H26 UNL     1      -4.273   0.649   0.788  1.00  0.00     0.033 H 
HETATM   46  H27 UNL     1      -4.382   1.848  -0.530  1.00  0.00     0.033 H 
HETATM   47  H28 UNL     1      -2.741   0.602  -1.903  1.00  0.00     0.033 H 
HETATM   48  H29 UNL     1      -2.553  -0.646  -0.636  1.00  0.00     0.033 H 
HETATM   49  H30 UNL     1      -4.114  -1.207  -2.591  1.00  0.00     0.036 H 
HETATM   50  H31 UNL     1      -5.248   0.044  -1.991  1.00  0.00     0.036 H 
HETATM   51  H32 UNL     1      -4.237  -2.392  -0.379  1.00  0.00     0.074 H 
HETATM   52  H33 UNL     1      -5.450  -1.228   0.206  1.00  0.00     0.074 H 
HETATM   53  H34 UNL     1      -7.393  -0.936  -1.479  1.00  0.00     0.066 H 
HETATM   54  H35 UNL     1      -7.606  -2.113  -0.098  1.00  0.00     0.066 H 
HETATM   55  H36 UNL     1      -8.030  -2.586  -1.776  1.00  0.00     0.066 H 
TER      56      UNL     1 
ENDMDL
