REMARK FAKE_HEAD_ATOM=C5_O1
REMARK REAL_HEAD_ATOM=C4_C3
REMARK DUMMY_ATOM=C5_H10_H8_H9_O1
REMARK TORSION=O2_C4_C3_C2
REMARK TORSION=C4_C3_C2_C1
MODEL 0
HETATM    1  C1  UNL     1      -1.839   0.126   0.922  1.00  0.00    -0.076 C 
HETATM    2  C2  UNL     1      -1.737  -0.208  -0.566  1.00  0.00    -0.060 C 
HETATM    3  C3  UNL     1      -0.444  -0.960  -0.909  1.00  0.00     0.015 C 
HETATM    4  C4  UNL     1       0.763  -0.089  -0.744  1.00  0.00     0.258 C 
HETATM    5  O1  UNL     1       1.519  -0.175   0.429  1.00  0.00    -0.326 OA
HETATM    6  C5  UNL     1       2.657   0.644   0.667  1.00  0.00     0.013 C 
HETATM    7  O2  UNL     1       1.069   0.736  -1.648  1.00  0.00    -0.265 OA
HETATM    8  H1  UNL     1      -1.769  -0.799   1.532  1.00  0.00     0.027 H 
HETATM    9  H2  UNL     1      -2.816   0.613   1.126  1.00  0.00     0.027 H 
HETATM   10  H3  UNL     1      -1.030   0.826   1.221  1.00  0.00     0.027 H 
HETATM   11  H4  UNL     1      -2.603  -0.847  -0.844  1.00  0.00     0.033 H 
HETATM   12  H5  UNL     1      -1.802   0.728  -1.163  1.00  0.00     0.033 H 
HETATM   13  H6  UNL     1      -0.497  -1.305  -1.964  1.00  0.00     0.048 H 
HETATM   14  H7  UNL     1      -0.347  -1.862  -0.267  1.00  0.00     0.048 H 
HETATM   15  H8  UNL     1       2.362   1.715   0.664  1.00  0.00     0.067 H 
HETATM   16  H9  UNL     1       3.086   0.392   1.659  1.00  0.00     0.067 H 
HETATM   17  H10 UNL     1       3.426   0.464  -0.114  1.00  0.00     0.067 H 
TER      18      UNL     1 
ENDMDL
