REMARK FAKE_HEAD_ATOM=C1_O1
REMARK REAL_HEAD_ATOM=C2_C3
REMARK DUMMY_ATOM=C1_H1_H2_H3_O1
REMARK TORSION=H4_C2_C3_C4
MODEL 0
HETATM    1  C1  UNL     1       2.915   0.346  -0.589  1.00  0.00     0.004 C 
HETATM    2  O1  UNL     1       1.704   0.478   0.121  1.00  0.00    -0.392 OA
HETATM    3  C2  UNL     1       1.085  -0.786   0.229  1.00  0.00     0.034 C 
HETATM    4  C3  UNL     1      -0.241  -0.635   0.923  1.00  0.00    -0.079 C 
HETATM    5  C4  UNL     1      -1.303   0.006   0.387  1.00  0.00    -0.089 C 
HETATM    6  C5  UNL     1      -1.241   0.634  -0.986  1.00  0.00    -0.055 C 
HETATM    7  C6  UNL     1      -2.578   0.081   1.185  1.00  0.00    -0.055 C 
HETATM    8  H1  UNL     1       3.616  -0.344  -0.068  1.00  0.00     0.066 H 
HETATM    9  H2  UNL     1       2.733   0.003  -1.632  1.00  0.00     0.066 H 
HETATM   10  H3  UNL     1       3.403   1.341  -0.644  1.00  0.00     0.066 H 
HETATM   11  H4  UNL     1       0.920  -1.251  -0.770  1.00  0.00     0.080 H 
HETATM   12  H5  UNL     1       1.717  -1.470   0.839  1.00  0.00     0.080 H 
HETATM   13  H6  UNL     1      -0.340  -1.087   1.907  1.00  0.00     0.080 H 
HETATM   14  H7  UNL     1      -0.468   1.430  -1.007  1.00  0.00     0.033 H 
HETATM   15  H8  UNL     1      -1.001  -0.137  -1.747  1.00  0.00     0.033 H 
HETATM   16  H9  UNL     1      -2.211   1.096  -1.265  1.00  0.00     0.033 H 
HETATM   17  H10 UNL     1      -2.948  -0.944   1.399  1.00  0.00     0.033 H 
HETATM   18  H11 UNL     1      -3.373   0.630   0.639  1.00  0.00     0.033 H 
HETATM   19  H12 UNL     1      -2.390   0.607   2.145  1.00  0.00     0.033 H 
TER      20      UNL     1 
ENDMDL
