REMARK FAKE_HEAD_ATOM=C1_O1
REMARK REAL_HEAD_ATOM=C2_C3
REMARK DUMMY_ATOM=C1_H1_H2_H3_O1
REMARK TORSION=H4_C2_C3_O2
REMARK TORSION=C2_C3_O2_C4
MODEL 0
HETATM    1  C1  UNL     1       2.761   0.522   0.255  1.00  0.00     0.005 C 
HETATM    2  O1  UNL     1       1.409   0.345   0.614  1.00  0.00    -0.386 OA
HETATM    3  C2  UNL     1       0.759  -0.418  -0.379  1.00  0.00     0.099 C 
HETATM    4  C3  UNL     1      -0.670  -0.595   0.009  1.00  0.00     0.282 C 
HETATM    5  O2  UNL     1      -1.619   0.341  -0.412  1.00  0.00    -0.325 OA
HETATM    6  C4  UNL     1      -2.994   0.248  -0.062  1.00  0.00     0.013 C 
HETATM    7  O3  UNL     1      -1.004  -1.562   0.747  1.00  0.00    -0.263 OA
HETATM    8  H1  UNL     1       2.854   1.081  -0.703  1.00  0.00     0.066 H 
HETATM    9  H2  UNL     1       3.260   1.123   1.043  1.00  0.00     0.066 H 
HETATM   10  H3  UNL     1       3.293  -0.453   0.190  1.00  0.00     0.066 H 
HETATM   11  H4  UNL     1       1.229  -1.424  -0.480  1.00  0.00     0.089 H 
HETATM   12  H5  UNL     1       0.794   0.100  -1.364  1.00  0.00     0.089 H 
HETATM   13  H6  UNL     1      -3.422  -0.701  -0.449  1.00  0.00     0.067 H 
HETATM   14  H7  UNL     1      -3.544   1.100  -0.512  1.00  0.00     0.067 H 
HETATM   15  H8  UNL     1      -3.110   0.290   1.042  1.00  0.00     0.067 H 
TER      16      UNL     1 
ENDMDL
