REMARK FAKE_HEAD_ATOM=C4_O1
REMARK REAL_HEAD_ATOM=C3_C2
REMARK DUMMY_ATOM=C4_H7_H8_H9_O1
REMARK TORSION=H5_C3_C2_C1
REMARK TORSION=C3_C2_O2_H10
MODEL 0
HETATM    1  C1  UNL     1      -1.719  -0.966  -0.328  1.00  0.00    -0.051 C 
HETATM    2  C2  UNL     1      -1.165   0.387   0.123  1.00  0.00     0.052 C 
HETATM    3  C3  UNL     1       0.340   0.493  -0.160  1.00  0.00     0.042 C 
HETATM    4  O1  UNL     1       1.037  -0.471   0.601  1.00  0.00    -0.393 OA
HETATM    5  C4  UNL     1       2.415  -0.385   0.316  1.00  0.00     0.004 C 
HETATM    6  O2  UNL     1      -1.850   1.406  -0.557  1.00  0.00    -0.394 OA
HETATM    7  H1  UNL     1      -2.809  -1.012  -0.123  1.00  0.00     0.031 H 
HETATM    8  H2  UNL     1      -1.226  -1.793   0.226  1.00  0.00     0.031 H 
HETATM    9  H3  UNL     1      -1.556  -1.110  -1.418  1.00  0.00     0.031 H 
HETATM   10  H4  UNL     1      -1.338   0.483   1.221  1.00  0.00     0.085 H 
HETATM   11  H5  UNL     1       0.513   0.344  -1.251  1.00  0.00     0.078 H 
HETATM   12  H6  UNL     1       0.674   1.519   0.121  1.00  0.00     0.078 H 
HETATM   13  H7  UNL     1       2.950  -1.140   0.928  1.00  0.00     0.066 H 
HETATM   14  H8  UNL     1       2.821   0.615   0.585  1.00  0.00     0.066 H 
HETATM   15  H9  UNL     1       2.620  -0.613  -0.754  1.00  0.00     0.066 H 
HETATM   16  H10 UNL     1      -1.707   2.242  -0.042  1.00  0.00     0.210 HD
TER      17      UNL     1 
ENDMDL
