REMARK FAKE_HEAD_ATOM=C1_O1
REMARK REAL_HEAD_ATOM=C2_C3
REMARK DUMMY_ATOM=C1_H1_H2_H3_O1
MODEL 0
HETATM    1  C1  UNL     1       2.788  -0.048  -0.064  1.00  0.00     0.010 C 
HETATM    2  O1  UNL     1       1.678   0.764   0.305  1.00  0.00    -0.356 OA
HETATM    3  C2  UNL     1       0.335   0.391   0.143  1.00  0.00     0.068 A 
HETATM    4  C3  UNL     1      -0.660   1.289   0.550  1.00  0.00    -0.051 A 
HETATM    5  C4  UNL     1      -2.012   0.961   0.408  1.00  0.00    -0.080 A 
HETATM    6  C5  UNL     1      -2.380  -0.269  -0.143  1.00  0.00    -0.083 A 
HETATM    7  C6  UNL     1      -1.397  -1.172  -0.552  1.00  0.00    -0.080 A 
HETATM    8  C7  UNL     1      -0.043  -0.849  -0.412  1.00  0.00    -0.051 A 
HETATM    9  H1  UNL     1       3.727   0.492   0.175  1.00  0.00     0.066 H 
HETATM   10  H2  UNL     1       2.764  -0.254  -1.155  1.00  0.00     0.066 H 
HETATM   11  H3  UNL     1       2.770  -1.000   0.507  1.00  0.00     0.066 H 
HETATM   12  H4  UNL     1      -0.384   2.244   0.978  1.00  0.00     0.087 H 
HETATM   13  H5  UNL     1      -2.774   1.661   0.726  1.00  0.00     0.083 H 
HETATM   14  H6  UNL     1      -3.427  -0.521  -0.252  1.00  0.00     0.083 H 
HETATM   15  H7  UNL     1      -1.683  -2.125  -0.979  1.00  0.00     0.083 H 
HETATM   16  H8  UNL     1       0.698  -1.565  -0.737  1.00  0.00     0.087 H 
TER      17      UNL     1 
ENDMDL
