REMARK FAKE_HEAD_ATOM=C4_O2
REMARK REAL_HEAD_ATOM=C2_C1
REMARK DUMMY_ATOM=C4_H7_H8_H9_O2
REMARK TORSION=H4_C2_C3_CL1
REMARK TORSION=H4_C2_C1_O1
REMARK TORSION=C2_C1_O1_H1
MODEL 0
HETATM    1  O1  UNL     1      -1.488  -1.770  -0.421  1.00  0.00    -0.398 OA
HETATM    2  C1  UNL     1      -1.144  -0.931   0.651  1.00  0.00     0.042 C 
HETATM    3  C2  UNL     1      -0.090   0.105   0.227  1.00  0.00     0.070 C 
HETATM    4  C3  UNL     1      -0.629   1.065  -0.848  1.00  0.00     0.028 C 
HETATM    5 CL1  UNL     1      -1.945   2.091  -0.215  1.00  0.00    -0.128 Cl
HETATM    6  O2  UNL     1       1.037  -0.588  -0.287  1.00  0.00    -0.387 OA
HETATM    7  C4  UNL     1       2.237   0.002   0.163  1.00  0.00     0.005 C 
HETATM    8  H1  UNL     1      -2.288  -1.372  -0.853  1.00  0.00     0.209 HD
HETATM    9  H2  UNL     1      -0.714  -1.560   1.460  1.00  0.00     0.077 H 
HETATM   10  H3  UNL     1      -2.044  -0.432   1.078  1.00  0.00     0.077 H 
HETATM   11  H4  UNL     1       0.147   0.705   1.140  1.00  0.00     0.088 H 
HETATM   12  H5  UNL     1       0.187   1.738  -1.186  1.00  0.00     0.060 H 
HETATM   13  H6  UNL     1      -0.992   0.503  -1.734  1.00  0.00     0.060 H 
HETATM   14  H7  UNL     1       3.089  -0.510  -0.328  1.00  0.00     0.066 H 
HETATM   15  H8  UNL     1       2.287   1.080  -0.109  1.00  0.00     0.066 H 
HETATM   16  H9  UNL     1       2.351  -0.127   1.262  1.00  0.00     0.066 H 
TER      17      UNL     1 
ENDMDL
