REMARK FAKE_HEAD_ATOM=C7_O2
REMARK REAL_HEAD_ATOM=C4_C3
REMARK DUMMY_ATOM=C7_H5_H6_H7_O2
REMARK TORSION=C2_C1_N1_O1
MODEL 0
HETATM    1  O1  UNL     1       3.871  -0.722   1.319  1.00  0.00    -0.532 OA
HETATM    2  N1  UNL     1       3.287  -0.493   0.094  1.00  0.00    -0.116 N 
HETATM    3  C1  UNL     1       1.870  -0.266  -0.010  1.00  0.00     0.103 A 
HETATM    4  C2  UNL     1       1.269  -0.032  -1.260  1.00  0.00    -0.048 A 
HETATM    5  C3  UNL     1      -0.108   0.188  -1.354  1.00  0.00    -0.049 A 
HETATM    6  C4  UNL     1      -0.911   0.180  -0.209  1.00  0.00     0.068 A 
HETATM    7  C5  UNL     1      -0.315  -0.054   1.044  1.00  0.00    -0.049 A 
HETATM    8  C6  UNL     1       1.062  -0.274   1.141  1.00  0.00    -0.048 A 
HETATM    9  O2  UNL     1      -2.288   0.407  -0.358  1.00  0.00    -0.356 OA
HETATM   10  C7  UNL     1      -3.220   0.426   0.718  1.00  0.00     0.010 C 
HETATM   11  O3  UNL     1       4.009  -0.487  -0.925  1.00  0.00    -0.532 OA
HETATM   12  H1  UNL     1       1.863  -0.019  -2.164  1.00  0.00     0.087 H 
HETATM   13  H2  UNL     1      -0.555   0.367  -2.325  1.00  0.00     0.087 H 
HETATM   14  H3  UNL     1      -0.907  -0.067   1.949  1.00  0.00     0.087 H 
HETATM   15  H4  UNL     1       1.494  -0.451   2.117  1.00  0.00     0.087 H 
HETATM   16  H5  UNL     1      -2.957   1.231   1.436  1.00  0.00     0.066 H 
HETATM   17  H6  UNL     1      -3.230  -0.558   1.232  1.00  0.00     0.066 H 
HETATM   18  H7  UNL     1      -4.234   0.626   0.315  1.00  0.00     0.066 H 
TER      19      UNL     1 
ENDMDL
