REMARK FAKE_HEAD_ATOM=C6_O1
REMARK REAL_HEAD_ATOM=C5_C4
REMARK DUMMY_ATOM=C6_H11_H12_H13_O1
REMARK TORSION=H9_C5_C4_C3
REMARK TORSION=C5_C4_C3_C2
REMARK TORSION=C4_C3_C2_C1
REMARK TORSION=C3_C2_O2_H14
MODEL 0
HETATM    1  C1  UNL     1      -2.289   0.873  -0.397  1.00  0.00    -0.052 C 
HETATM    2  C2  UNL     1      -1.441  -0.406  -0.425  1.00  0.00     0.032 C 
HETATM    3  C3  UNL     1      -0.854  -0.767   0.959  1.00  0.00    -0.040 C 
HETATM    4  C4  UNL     1       0.081   0.297   1.569  1.00  0.00    -0.043 C 
HETATM    5  C5  UNL     1       1.323   0.594   0.722  1.00  0.00     0.019 C 
HETATM    6  O1  UNL     1       2.034  -0.601   0.476  1.00  0.00    -0.396 OA
HETATM    7  C6  UNL     1       3.146  -0.323  -0.345  1.00  0.00     0.004 C 
HETATM    8  O2  UNL     1      -2.207  -1.479  -0.913  1.00  0.00    -0.396 OA
HETATM    9  H1  UNL     1      -1.650   1.762  -0.214  1.00  0.00     0.030 H 
HETATM   10  H2  UNL     1      -3.065   0.811   0.395  1.00  0.00     0.030 H 
HETATM   11  H3  UNL     1      -2.791   1.011  -1.378  1.00  0.00     0.030 H 
HETATM   12  H4  UNL     1      -0.608  -0.252  -1.143  1.00  0.00     0.082 H 
HETATM   13  H5  UNL     1      -1.690  -0.940   1.673  1.00  0.00     0.036 H 
HETATM   14  H6  UNL     1      -0.302  -1.727   0.874  1.00  0.00     0.036 H 
HETATM   15  H7  UNL     1      -0.478   1.240   1.748  1.00  0.00     0.036 H 
HETATM   16  H8  UNL     1       0.417  -0.069   2.564  1.00  0.00     0.036 H 
HETATM   17  H9  UNL     1       1.959   1.309   1.293  1.00  0.00     0.074 H 
HETATM   18  H10 UNL     1       1.012   1.088  -0.226  1.00  0.00     0.074 H 
HETATM   19  H11 UNL     1       3.707  -1.265  -0.511  1.00  0.00     0.066 H 
HETATM   20  H12 UNL     1       2.825   0.057  -1.340  1.00  0.00     0.066 H 
HETATM   21  H13 UNL     1       3.838   0.399   0.143  1.00  0.00     0.066 H 
HETATM   22  H14 UNL     1      -2.969  -1.613  -0.290  1.00  0.00     0.210 HD
TER      23      UNL     1 
ENDMDL
