REMARK FAKE_HEAD_ATOM=C6_O1
REMARK REAL_HEAD_ATOM=C5_C4
REMARK DUMMY_ATOM=C6_H10_H11_H12_O1
REMARK TORSION=H8_C5_C4_C3
REMARK TORSION=C4_C3_C2_C1
MODEL 0
HETATM    1  C1  UNL     1       2.908  -0.753   0.069  1.00  0.00    -0.073 C 
HETATM    2  C2  UNL     1       2.248   0.427  -0.639  1.00  0.00    -0.053 C 
HETATM    3  C3  UNL     1       0.786   0.519  -0.302  1.00  0.00    -0.105 C 
HETATM    4  C4  UNL     1      -0.101  -0.374  -0.768  1.00  0.00    -0.084 C 
HETATM    5  C5  UNL     1      -1.560  -0.262  -0.445  1.00  0.00     0.034 C 
HETATM    6  O1  UNL     1      -1.742  -0.422   0.946  1.00  0.00    -0.392 OA
HETATM    7  C6  UNL     1      -3.112  -0.295   1.255  1.00  0.00     0.004 C 
HETATM    8  H1  UNL     1       2.783  -0.661   1.169  1.00  0.00     0.027 H 
HETATM    9  H2  UNL     1       3.993  -0.767  -0.166  1.00  0.00     0.027 H 
HETATM   10  H3  UNL     1       2.462  -1.712  -0.271  1.00  0.00     0.027 H 
HETATM   11  H4  UNL     1       2.378   0.328  -1.738  1.00  0.00     0.038 H 
HETATM   12  H5  UNL     1       2.752   1.363  -0.316  1.00  0.00     0.038 H 
HETATM   13  H6  UNL     1       0.445   1.349   0.311  1.00  0.00     0.076 H 
HETATM   14  H7  UNL     1       0.233  -1.189  -1.405  1.00  0.00     0.079 H 
HETATM   15  H8  UNL     1      -1.923   0.735  -0.787  1.00  0.00     0.080 H 
HETATM   16  H9  UNL     1      -2.101  -1.059  -1.004  1.00  0.00     0.080 H 
HETATM   17  H10 UNL     1      -3.242  -0.430   2.348  1.00  0.00     0.066 H 
HETATM   18  H11 UNL     1      -3.715  -1.079   0.745  1.00  0.00     0.066 H 
HETATM   19  H12 UNL     1      -3.491   0.719   0.995  1.00  0.00     0.066 H 
TER      20      UNL     1 
ENDMDL
