REMARK FAKE_HEAD_ATOM=C5_O1
REMARK REAL_HEAD_ATOM=C4_C3
REMARK DUMMY_ATOM=C5_H7_H8_H9_O1
REMARK TORSION=C6_C4_C3_C2
MODEL 0
HETATM    1  C1  UNL     1       3.176  -0.093  -0.184  1.00  0.00    -0.060 C 
HETATM    2  C2  UNL     1       1.731  -0.020  -0.571  1.00  0.00    -0.108 C 
HETATM    3  C3  UNL     1       0.766  -0.038   0.360  1.00  0.00    -0.080 C 
HETATM    4  C4  UNL     1      -0.693   0.050  -0.010  1.00  0.00     0.050 C 
HETATM    5  O1  UNL     1      -1.443   0.257   1.176  1.00  0.00    -0.387 OA
HETATM    6  C5  UNL     1      -2.510   1.151   0.944  1.00  0.00     0.005 C 
HETATM    7  C6  UNL     1      -1.146  -1.255  -0.672  1.00  0.00    -0.049 C 
HETATM    8  H1  UNL     1       3.809  -0.063  -1.095  1.00  0.00     0.032 H 
HETATM    9  H2  UNL     1       3.439   0.769   0.464  1.00  0.00     0.032 H 
HETATM   10  H3  UNL     1       3.375  -1.040   0.360  1.00  0.00     0.032 H 
HETATM   11  H4  UNL     1       1.473   0.051  -1.624  1.00  0.00     0.075 H 
HETATM   12  H5  UNL     1       1.040  -0.089   1.411  1.00  0.00     0.080 H 
HETATM   13  H6  UNL     1      -0.801   0.885  -0.745  1.00  0.00     0.089 H 
HETATM   14  H7  UNL     1      -2.128   2.170   0.717  1.00  0.00     0.066 H 
HETATM   15  H8  UNL     1      -3.123   1.218   1.866  1.00  0.00     0.066 H 
HETATM   16  H9  UNL     1      -3.171   0.792   0.124  1.00  0.00     0.066 H 
HETATM   17  H10 UNL     1      -2.222  -1.194  -0.939  1.00  0.00     0.031 H 
HETATM   18  H11 UNL     1      -1.001  -2.112   0.021  1.00  0.00     0.031 H 
HETATM   19  H12 UNL     1      -0.571  -1.441  -1.604  1.00  0.00     0.031 H 
TER      20      UNL     1 
ENDMDL
