REMARK FAKE_HEAD_ATOM=C4_O1
REMARK REAL_HEAD_ATOM=C3_C2
REMARK DUMMY_ATOM=C4_H6_H7_H8_O1
REMARK TORSION=H5_C3_C2_C1
MODEL 0
HETATM    1  C1  UNL     1      -1.462  -1.340  -0.305  1.00  0.00    -0.071 C 
HETATM    2  C2  UNL     1      -0.974   0.115  -0.400  1.00  0.00    -0.036 C 
HETATM    3  C3  UNL     1       0.506   0.223   0.058  1.00  0.00     0.037 C 
HETATM    4  O1  UNL     1       1.297  -0.639  -0.747  1.00  0.00    -0.391 OA
HETATM    5  C4  UNL     1       2.214  -1.363   0.044  1.00  0.00     0.004 C 
HETATM    6  C5  UNL     1       1.048   1.651  -0.098  1.00  0.00    -0.052 C 
HETATM    7  C6  UNL     1      -1.907   1.019   0.424  1.00  0.00    -0.071 C 
HETATM    8  H1  UNL     1      -0.856  -2.000  -0.961  1.00  0.00     0.028 H 
HETATM    9  H2  UNL     1      -2.519  -1.416  -0.639  1.00  0.00     0.028 H 
HETATM   10  H3  UNL     1      -1.390  -1.709   0.741  1.00  0.00     0.028 H 
HETATM   11  H4  UNL     1      -1.045   0.425  -1.466  1.00  0.00     0.042 H 
HETATM   12  H5  UNL     1       0.539  -0.036   1.146  1.00  0.00     0.083 H 
HETATM   13  H6  UNL     1       2.860  -1.967  -0.626  1.00  0.00     0.066 H 
HETATM   14  H7  UNL     1       2.873  -0.680   0.626  1.00  0.00     0.066 H 
HETATM   15  H8  UNL     1       1.681  -2.063   0.724  1.00  0.00     0.066 H 
HETATM   16  H9  UNL     1       0.572   2.337   0.633  1.00  0.00     0.030 H 
HETATM   17  H10 UNL     1       0.871   2.027  -1.128  1.00  0.00     0.030 H 
HETATM   18  H11 UNL     1       2.140   1.665   0.098  1.00  0.00     0.030 H 
HETATM   19  H12 UNL     1      -2.966   0.844   0.138  1.00  0.00     0.028 H 
HETATM   20  H13 UNL     1      -1.691   2.089   0.227  1.00  0.00     0.028 H 
HETATM   21  H14 UNL     1      -1.793   0.816   1.510  1.00  0.00     0.028 H 
TER      22      UNL     1 
ENDMDL
