REMARK FAKE_HEAD_ATOM=C5_O1
REMARK REAL_HEAD_ATOM=C4_C3
REMARK DUMMY_ATOM=C5_H7_H8_H9_O1
REMARK TORSION=C6_C4_C3_C2
MODEL 0
HETATM    1  C1  UNL     1       3.039  -0.331  -0.611  1.00  0.00    -0.060 C 
HETATM    2  C2  UNL     1       1.586   0.029  -0.632  1.00  0.00    -0.108 C 
HETATM    3  C3  UNL     1       0.814  -0.150   0.449  1.00  0.00    -0.080 C 
HETATM    4  C4  UNL     1      -0.647   0.218   0.426  1.00  0.00     0.050 C 
HETATM    5  O1  UNL     1      -1.310  -0.623  -0.504  1.00  0.00    -0.387 OA
HETATM    6  C5  UNL     1      -2.271   0.106  -1.237  1.00  0.00     0.005 C 
HETATM    7  C6  UNL     1      -1.263   0.026   1.814  1.00  0.00    -0.049 C 
HETATM    8  H1  UNL     1       3.564   0.260   0.169  1.00  0.00     0.032 H 
HETATM    9  H2  UNL     1       3.495  -0.108  -1.598  1.00  0.00     0.032 H 
HETATM   10  H3  UNL     1       3.158  -1.414  -0.397  1.00  0.00     0.032 H 
HETATM   11  H4  UNL     1       1.160   0.440  -1.543  1.00  0.00     0.075 H 
HETATM   12  H5  UNL     1       1.256  -0.557   1.356  1.00  0.00     0.080 H 
HETATM   13  H6  UNL     1      -0.707   1.305   0.168  1.00  0.00     0.089 H 
HETATM   14  H7  UNL     1      -3.010   0.595  -0.565  1.00  0.00     0.066 H 
HETATM   15  H8  UNL     1      -1.779   0.861  -1.889  1.00  0.00     0.066 H 
HETATM   16  H9  UNL     1      -2.824  -0.597  -1.893  1.00  0.00     0.066 H 
HETATM   17  H10 UNL     1      -0.732   0.653   2.561  1.00  0.00     0.031 H 
HETATM   18  H11 UNL     1      -1.200  -1.040   2.122  1.00  0.00     0.031 H 
HETATM   19  H12 UNL     1      -2.331   0.329   1.802  1.00  0.00     0.031 H 
TER      20      UNL     1 
ENDMDL
