REMARK FAKE_HEAD_ATOM=C6_O1
REMARK REAL_HEAD_ATOM=C2_C1
REMARK DUMMY_ATOM=C6_H10_H8_H9_O1
REMARK TORSION=C1_C2_C3_C4
REMARK TORSION=C2_C3_C4_C5
MODEL 0
HETATM    1  C1  UNL     1      -0.404   1.640  -1.039  1.00  0.00    -0.051 C 
HETATM    2  C2  UNL     1       0.002   0.339  -0.340  1.00  0.00     0.044 C 
HETATM    3  C3  UNL     1       1.267   0.570   0.499  1.00  0.00     0.014 C 
HETATM    4  C4  UNL     1       1.720  -0.684   1.115  1.00  0.00    -0.115 C 
HETATM    5  C5  UNL     1       2.091  -1.713   1.620  1.00  0.00    -0.154 C 
HETATM    6  O1  UNL     1      -1.050  -0.077   0.517  1.00  0.00    -0.390 OA
HETATM    7  C6  UNL     1      -1.815  -1.094  -0.092  1.00  0.00     0.004 C 
HETATM    8  H1  UNL     1      -1.305   1.469  -1.665  1.00  0.00     0.030 H 
HETATM    9  H2  UNL     1      -0.635   2.428  -0.291  1.00  0.00     0.030 H 
HETATM   10  H3  UNL     1       0.415   1.995  -1.700  1.00  0.00     0.030 H 
HETATM   11  H4  UNL     1       0.258  -0.410  -1.130  1.00  0.00     0.084 H 
HETATM   12  H5  UNL     1       2.085   0.959  -0.143  1.00  0.00     0.055 H 
HETATM   13  H6  UNL     1       1.065   1.311   1.303  1.00  0.00     0.055 H 
HETATM   14  H7  UNL     1       2.416  -2.618   2.063  1.00  0.00     0.166 H 
HETATM   15  H8  UNL     1      -2.672  -1.337   0.570  1.00  0.00     0.066 H 
HETATM   16  H9  UNL     1      -2.227  -0.762  -1.071  1.00  0.00     0.066 H 
HETATM   17  H10 UNL     1      -1.211  -2.019  -0.217  1.00  0.00     0.066 H 
TER      18      UNL     1 
ENDMDL
