REMARK FAKE_HEAD_ATOM=C5_O2
REMARK REAL_HEAD_ATOM=C2_C1
REMARK DUMMY_ATOM=C5_H10_H8_H9_O2
REMARK TORSION=H4_C2_C3_C4
REMARK TORSION=H4_C2_C1_O1
REMARK TORSION=C2_C1_O1_H1
MODEL 0
HETATM    1  O1  UNL     1       0.673   2.085  -0.443  1.00  0.00    -0.398 OA
HETATM    2  C1  UNL     1       0.588   1.133   0.585  1.00  0.00     0.044 C 
HETATM    3  C2  UNL     1       0.008  -0.194   0.063  1.00  0.00     0.073 C 
HETATM    4  C3  UNL     1       0.878  -0.756  -1.034  1.00  0.00    -0.083 C 
HETATM    5  C4  UNL     1       2.090  -1.261  -0.785  1.00  0.00    -0.122 C 
HETATM    6  O2  UNL     1      -1.291   0.025  -0.463  1.00  0.00    -0.385 OA
HETATM    7  C5  UNL     1      -2.279  -0.273   0.499  1.00  0.00     0.005 C 
HETATM    8  H1  UNL     1      -0.235   2.469  -0.553  1.00  0.00     0.209 HD
HETATM    9  H2  UNL     1       1.605   0.963   0.996  1.00  0.00     0.078 H 
HETATM   10  H3  UNL     1      -0.035   1.522   1.422  1.00  0.00     0.078 H 
HETATM   11  H4  UNL     1       0.013  -0.938   0.898  1.00  0.00     0.092 H 
HETATM   12  H5  UNL     1       0.500  -0.781  -2.053  1.00  0.00     0.079 H 
HETATM   13  H6  UNL     1       2.495  -1.275   0.222  1.00  0.00     0.066 H 
HETATM   14  H7  UNL     1       2.685  -1.670  -1.596  1.00  0.00     0.066 H 
HETATM   15  H8  UNL     1      -2.292  -1.362   0.726  1.00  0.00     0.066 H 
HETATM   16  H9  UNL     1      -3.271  -0.004   0.083  1.00  0.00     0.066 H 
HETATM   17  H10 UNL     1      -2.133   0.315   1.432  1.00  0.00     0.066 H 
TER      18      UNL     1 
ENDMDL
