REMARK FAKE_HEAD_ATOM=C4_O1
REMARK REAL_HEAD_ATOM=C2_C1
REMARK DUMMY_ATOM=C4_H6_H7_H8_O1
REMARK TORSION=H3_C2_C1_CL1
REMARK TORSION=H3_C2_C3_CL2
MODEL 0
HETATM    1 CL1  UNL     1      -1.997  -1.525   1.530  1.00  0.00    -0.128 Cl
HETATM    2  C1  UNL     1      -0.810  -1.341   0.209  1.00  0.00     0.027 C 
HETATM    3  C2  UNL     1      -0.248   0.088   0.149  1.00  0.00     0.062 C 
HETATM    4  C3  UNL     1      -1.323   1.075  -0.325  1.00  0.00     0.027 C 
HETATM    5 CL2  UNL     1      -0.685   2.740  -0.328  1.00  0.00    -0.128 Cl
HETATM    6  O1  UNL     1       0.829   0.122  -0.775  1.00  0.00    -0.389 OA
HETATM    7  C4  UNL     1       2.068   0.072  -0.101  1.00  0.00     0.005 C 
HETATM    8  H1  UNL     1       0.015  -2.060   0.397  1.00  0.00     0.060 H 
HETATM    9  H2  UNL     1      -1.289  -1.613  -0.756  1.00  0.00     0.060 H 
HETATM   10  H3  UNL     1       0.049   0.396   1.182  1.00  0.00     0.086 H 
HETATM   11  H4  UNL     1      -1.655   0.819  -1.354  1.00  0.00     0.060 H 
HETATM   12  H5  UNL     1      -2.204   1.048   0.350  1.00  0.00     0.060 H 
HETATM   13  H6  UNL     1       2.879   0.011  -0.855  1.00  0.00     0.066 H 
HETATM   14  H7  UNL     1       2.141  -0.828   0.549  1.00  0.00     0.066 H 
HETATM   15  H8  UNL     1       2.228   0.996   0.496  1.00  0.00     0.066 H 
TER      16      UNL     1 
ENDMDL
