REMARK FAKE_HEAD_ATOM=C27_O1
REMARK REAL_HEAD_ATOM=C26_C25
REMARK DUMMY_ATOM=C27_H54_H55_H56_O1
REMARK TORSION=H52_C26_C25_C24
REMARK TORSION=C26_C25_C24_C23
REMARK TORSION=C25_C24_C23_C22
REMARK TORSION=C24_C23_C22_C21
REMARK TORSION=C23_C22_C21_C20
REMARK TORSION=C22_C21_C20_C19
REMARK TORSION=C21_C20_C19_C18
REMARK TORSION=C20_C19_C18_C17
REMARK TORSION=C19_C18_C17_C16
REMARK TORSION=C18_C17_C16_C15
REMARK TORSION=C17_C16_C15_C14
REMARK TORSION=C16_C15_C14_C13
REMARK TORSION=C15_C14_C13_C12
REMARK TORSION=C14_C13_C12_C11
REMARK TORSION=C13_C12_C11_C10
REMARK TORSION=C12_C11_C10_C9
REMARK TORSION=C11_C10_C9_C8
REMARK TORSION=C10_C9_C8_C7
REMARK TORSION=C9_C8_C7_C6
REMARK TORSION=C8_C7_C6_C5
REMARK TORSION=C7_C6_C5_C4
REMARK TORSION=C6_C5_C4_C3
REMARK TORSION=C5_C4_C3_C2
REMARK TORSION=C4_C3_C2_C1
MODEL 0
HETATM    1  C1  UNL     1      -4.498   1.297  -4.615  1.00  0.00    -0.077 C 
HETATM    2  C2  UNL     1      -5.281   0.365  -3.690  1.00  0.00    -0.069 C 
HETATM    3  C3  UNL     1      -4.630   0.217  -2.305  1.00  0.00    -0.065 C 
HETATM    4  C4  UNL     1      -4.846   1.454  -1.418  1.00  0.00    -0.065 C 
HETATM    5  C5  UNL     1      -4.077   1.379  -0.086  1.00  0.00    -0.065 C 
HETATM    6  C6  UNL     1      -4.489   0.225   0.846  1.00  0.00    -0.065 C 
HETATM    7  C7  UNL     1      -5.914   0.374   1.401  1.00  0.00    -0.065 C 
HETATM    8  C8  UNL     1      -6.338  -0.810   2.290  1.00  0.00    -0.065 C 
HETATM    9  C9  UNL     1      -5.573  -0.899   3.630  1.00  0.00    -0.065 C 
HETATM   10  C10 UNL     1      -4.459  -1.960   3.594  1.00  0.00    -0.065 C 
HETATM   11  C11 UNL     1      -3.766  -2.160   4.955  1.00  0.00    -0.065 C 
HETATM   12  C12 UNL     1      -3.081  -0.909   5.545  1.00  0.00    -0.065 C 
HETATM   13  C13 UNL     1      -2.130  -0.166   4.591  1.00  0.00    -0.065 C 
HETATM   14  C14 UNL     1      -0.985  -1.049   4.067  1.00  0.00    -0.065 C 
HETATM   15  C15 UNL     1       0.007  -0.270   3.188  1.00  0.00    -0.065 C 
HETATM   16  C16 UNL     1      -0.611   0.172   1.848  1.00  0.00    -0.065 C 
HETATM   17  C17 UNL     1       0.421   0.801   0.899  1.00  0.00    -0.065 C 
HETATM   18  C18 UNL     1       1.353  -0.246   0.262  1.00  0.00    -0.065 C 
HETATM   19  C19 UNL     1       2.189   0.331  -0.892  1.00  0.00    -0.065 C 
HETATM   20  C20 UNL     1       3.282   1.297  -0.404  1.00  0.00    -0.065 C 
HETATM   21  C21 UNL     1       4.119   1.873  -1.558  1.00  0.00    -0.065 C 
HETATM   22  C22 UNL     1       5.084   0.843  -2.164  1.00  0.00    -0.065 C 
HETATM   23  C23 UNL     1       6.004   1.501  -3.204  1.00  0.00    -0.065 C 
HETATM   24  C24 UNL     1       6.884   0.483  -3.946  1.00  0.00    -0.063 C 
HETATM   25  C25 UNL     1       7.984  -0.111  -3.053  1.00  0.00    -0.045 C 
HETATM   26  C26 UNL     1       8.921  -1.017  -3.859  1.00  0.00     0.019 C 
HETATM   27  O1  UNL     1       9.960  -1.503  -3.030  1.00  0.00    -0.396 OA
HETATM   28  C27 UNL     1       9.652  -2.798  -2.562  1.00  0.00     0.004 C 
HETATM   29  H1  UNL     1      -3.440   0.969  -4.694  1.00  0.00     0.027 H 
HETATM   30  H2  UNL     1      -4.950   1.274  -5.629  1.00  0.00     0.027 H 
HETATM   31  H3  UNL     1      -4.534   2.343  -4.248  1.00  0.00     0.027 H 
HETATM   32  H4  UNL     1      -6.325   0.731  -3.587  1.00  0.00     0.032 H 
HETATM   33  H5  UNL     1      -5.323  -0.638  -4.167  1.00  0.00     0.032 H 
HETATM   34  H6  UNL     1      -3.543   0.009  -2.418  1.00  0.00     0.033 H 
HETATM   35  H7  UNL     1      -5.095  -0.664  -1.815  1.00  0.00     0.033 H 
HETATM   36  H8  UNL     1      -5.930   1.606  -1.234  1.00  0.00     0.033 H 
HETATM   37  H9  UNL     1      -4.481   2.356  -1.951  1.00  0.00     0.033 H 
HETATM   38  H10 UNL     1      -2.992   1.282  -0.308  1.00  0.00     0.033 H 
HETATM   39  H11 UNL     1      -4.208   2.342   0.455  1.00  0.00     0.033 H 
HETATM   40  H12 UNL     1      -3.781   0.242   1.694  1.00  0.00     0.033 H 
HETATM   41  H13 UNL     1      -4.369  -0.754   0.337  1.00  0.00     0.033 H 
HETATM   42  H14 UNL     1      -6.634   0.423   0.559  1.00  0.00     0.033 H 
HETATM   43  H15 UNL     1      -5.999   1.323   1.974  1.00  0.00     0.033 H 
HETATM   44  H16 UNL     1      -7.418  -0.674   2.522  1.00  0.00     0.033 H 
HETATM   45  H17 UNL     1      -6.261  -1.759   1.716  1.00  0.00     0.033 H 
HETATM   46  H18 UNL     1      -6.294  -1.183   4.428  1.00  0.00     0.033 H 
HETATM   47  H19 UNL     1      -5.160   0.095   3.902  1.00  0.00     0.033 H 
HETATM   48  H20 UNL     1      -3.706  -1.716   2.819  1.00  0.00     0.033 H 
HETATM   49  H21 UNL     1      -4.907  -2.935   3.303  1.00  0.00     0.033 H 
HETATM   50  H22 UNL     1      -3.012  -2.970   4.850  1.00  0.00     0.033 H 
HETATM   51  H23 UNL     1      -4.517  -2.525   5.688  1.00  0.00     0.033 H 
HETATM   52  H24 UNL     1      -2.512  -1.215   6.450  1.00  0.00     0.033 H 
HETATM   53  H25 UNL     1      -3.862  -0.198   5.890  1.00  0.00     0.033 H 
HETATM   54  H26 UNL     1      -2.716   0.254   3.752  1.00  0.00     0.033 H 
HETATM   55  H27 UNL     1      -1.694   0.695   5.143  1.00  0.00     0.033 H 
HETATM   56  H28 UNL     1      -1.385  -1.904   3.483  1.00  0.00     0.033 H 
HETATM   57  H29 UNL     1      -0.430  -1.466   4.936  1.00  0.00     0.033 H 
HETATM   58  H30 UNL     1       0.873  -0.937   2.996  1.00  0.00     0.033 H 
HETATM   59  H31 UNL     1       0.384   0.619   3.741  1.00  0.00     0.033 H 
HETATM   60  H32 UNL     1      -1.110  -0.687   1.349  1.00  0.00     0.033 H 
HETATM   61  H33 UNL     1      -1.385   0.942   2.047  1.00  0.00     0.033 H 
HETATM   62  H34 UNL     1       1.012   1.561   1.451  1.00  0.00     0.033 H 
HETATM   63  H35 UNL     1      -0.135   1.325   0.091  1.00  0.00     0.033 H 
HETATM   64  H36 UNL     1       0.738  -1.077  -0.147  1.00  0.00     0.033 H 
HETATM   65  H37 UNL     1       2.034  -0.675   1.028  1.00  0.00     0.033 H 
HETATM   66  H38 UNL     1       1.523   0.844  -1.620  1.00  0.00     0.033 H 
HETATM   67  H39 UNL     1       2.664  -0.524  -1.417  1.00  0.00     0.033 H 
HETATM   68  H40 UNL     1       3.947   0.784   0.325  1.00  0.00     0.033 H 
HETATM   69  H41 UNL     1       2.805   2.152   0.119  1.00  0.00     0.033 H 
HETATM   70  H42 UNL     1       3.447   2.274  -2.347  1.00  0.00     0.033 H 
HETATM   71  H43 UNL     1       4.713   2.725  -1.157  1.00  0.00     0.033 H 
HETATM   72  H44 UNL     1       5.699   0.401  -1.351  1.00  0.00     0.033 H 
HETATM   73  H45 UNL     1       4.506   0.033  -2.656  1.00  0.00     0.033 H 
HETATM   74  H46 UNL     1       5.375   2.023  -3.959  1.00  0.00     0.033 H 
HETATM   75  H47 UNL     1       6.645   2.266  -2.714  1.00  0.00     0.033 H 
HETATM   76  H48 UNL     1       7.362   1.005  -4.804  1.00  0.00     0.033 H 
HETATM   77  H49 UNL     1       6.251  -0.333  -4.360  1.00  0.00     0.033 H 
HETATM   78  H50 UNL     1       8.579   0.710  -2.597  1.00  0.00     0.036 H 
HETATM   79  H51 UNL     1       7.523  -0.707  -2.238  1.00  0.00     0.036 H 
HETATM   80  H52 UNL     1       8.339  -1.823  -4.367  1.00  0.00     0.074 H 
HETATM   81  H53 UNL     1       9.389  -0.413  -4.666  1.00  0.00     0.074 H 
HETATM   82  H54 UNL     1      10.439  -3.112  -1.846  1.00  0.00     0.066 H 
HETATM   83  H55 UNL     1       9.646  -3.529  -3.400  1.00  0.00     0.066 H 
HETATM   84  H56 UNL     1       8.679  -2.818  -2.023  1.00  0.00     0.066 H 
TER      85      UNL     1 
ENDMDL
