REMARK FAKE_HEAD_ATOM=C5_O1
REMARK REAL_HEAD_ATOM=C4_C3
REMARK DUMMY_ATOM=C5_H10_H11_H12_O1
REMARK TORSION=H8_C4_C3_C2
REMARK TORSION=C4_C3_C2_C1
MODEL 0
HETATM    1  C1  UNL     1       2.489   0.529  -0.025  1.00  0.00    -0.076 C 
HETATM    2  C2  UNL     1       1.549  -0.471  -0.697  1.00  0.00    -0.067 C 
HETATM    3  C3  UNL     1       0.244  -0.681   0.087  1.00  0.00    -0.045 C 
HETATM    4  C4  UNL     1      -0.682   0.541   0.036  1.00  0.00     0.019 C 
HETATM    5  O1  UNL     1      -1.893   0.259   0.712  1.00  0.00    -0.396 OA
HETATM    6  C5  UNL     1      -2.900  -0.101  -0.209  1.00  0.00     0.004 C 
HETATM    7  H1  UNL     1       2.058   1.552  -0.051  1.00  0.00     0.027 H 
HETATM    8  H2  UNL     1       3.456   0.549  -0.569  1.00  0.00     0.027 H 
HETATM    9  H3  UNL     1       2.682   0.235   1.029  1.00  0.00     0.027 H 
HETATM   10  H4  UNL     1       2.075  -1.448  -0.769  1.00  0.00     0.032 H 
HETATM   11  H5  UNL     1       1.324  -0.134  -1.732  1.00  0.00     0.032 H 
HETATM   12  H6  UNL     1      -0.286  -1.552  -0.355  1.00  0.00     0.036 H 
HETATM   13  H7  UNL     1       0.474  -0.933   1.146  1.00  0.00     0.036 H 
HETATM   14  H8  UNL     1      -0.827   0.877  -1.019  1.00  0.00     0.074 H 
HETATM   15  H9  UNL     1      -0.195   1.383   0.569  1.00  0.00     0.074 H 
HETATM   16  H10 UNL     1      -2.589  -0.963  -0.839  1.00  0.00     0.066 H 
HETATM   17  H11 UNL     1      -3.804  -0.406   0.357  1.00  0.00     0.066 H 
HETATM   18  H12 UNL     1      -3.177   0.766  -0.848  1.00  0.00     0.066 H 
TER      19      UNL     1 
ENDMDL
