REMARK FAKE_HEAD_ATOM=C1_O1
REMARK REAL_HEAD_ATOM=C2_C3
REMARK DUMMY_ATOM=C1_H1_H2_H3_O1
REMARK TORSION=H4_C2_C3_C4
REMARK TORSION=C2_C3_C4_C5
REMARK TORSION=C3_C4_C5_C6
MODEL 0
HETATM    1  C1  UNL     1       3.137   0.315   0.138  1.00  0.00     0.004 C 
HETATM    2  O1  UNL     1       2.217   0.098  -0.910  1.00  0.00    -0.396 OA
HETATM    3  C2  UNL     1       1.146  -0.714  -0.467  1.00  0.00     0.019 C 
HETATM    4  C3  UNL     1      -0.049   0.158  -0.069  1.00  0.00    -0.042 C 
HETATM    5  C4  UNL     1      -1.254  -0.703   0.331  1.00  0.00    -0.049 C 
HETATM    6  C5  UNL     1      -2.414   0.151   0.763  1.00  0.00    -0.112 C 
HETATM    7  C6  UNL     1      -3.115   0.880  -0.112  1.00  0.00    -0.125 C 
HETATM    8  H1  UNL     1       3.649  -0.632   0.415  1.00  0.00     0.066 H 
HETATM    9  H2  UNL     1       2.645   0.766   1.028  1.00  0.00     0.066 H 
HETATM   10  H3  UNL     1       3.912   1.027  -0.214  1.00  0.00     0.066 H 
HETATM   11  H4  UNL     1       0.842  -1.363  -1.316  1.00  0.00     0.074 H 
HETATM   12  H5  UNL     1       1.422  -1.401   0.370  1.00  0.00     0.074 H 
HETATM   13  H6  UNL     1      -0.321   0.809  -0.929  1.00  0.00     0.036 H 
HETATM   14  H7  UNL     1       0.237   0.809   0.786  1.00  0.00     0.036 H 
HETATM   15  H8  UNL     1      -0.967  -1.361   1.179  1.00  0.00     0.038 H 
HETATM   16  H9  UNL     1      -1.564  -1.350  -0.518  1.00  0.00     0.038 H 
HETATM   17  H10 UNL     1      -2.710   0.150   1.808  1.00  0.00     0.075 H 
HETATM   18  H11 UNL     1      -2.859   0.886  -1.167  1.00  0.00     0.066 H 
HETATM   19  H12 UNL     1      -3.956   1.475   0.229  1.00  0.00     0.066 H 
TER      20      UNL     1 
ENDMDL
