REMARK FAKE_HEAD_ATOM=C4_O1
REMARK REAL_HEAD_ATOM=C3_C2
REMARK DUMMY_ATOM=C4_H6_H7_H8_O1
REMARK TORSION=H5_C3_C2_C1
REMARK TORSION=C3_C2_O2_H12
MODEL 0
HETATM    1  C1  UNL     1      -1.543  -1.315  -0.585  1.00  0.00    -0.050 C 
HETATM    2  C2  UNL     1      -1.166   0.170  -0.506  1.00  0.00     0.057 C 
HETATM    3  C3  UNL     1       0.199   0.375   0.193  1.00  0.00     0.059 C 
HETATM    4  O1  UNL     1       1.202  -0.298  -0.553  1.00  0.00    -0.389 OA
HETATM    5  C4  UNL     1       2.100  -0.967   0.305  1.00  0.00     0.005 C 
HETATM    6  C5  UNL     1       0.553   1.865   0.261  1.00  0.00    -0.050 C 
HETATM    7  O2  UNL     1      -2.185   0.889   0.145  1.00  0.00    -0.393 OA
HETATM    8  H1  UNL     1      -1.581  -1.763   0.431  1.00  0.00     0.031 H 
HETATM    9  H2  UNL     1      -0.802  -1.872  -1.197  1.00  0.00     0.031 H 
HETATM   10  H3  UNL     1      -2.540  -1.425  -1.061  1.00  0.00     0.031 H 
HETATM   11  H4  UNL     1      -1.092   0.554  -1.548  1.00  0.00     0.086 H 
HETATM   12  H5  UNL     1       0.099  -0.002   1.241  1.00  0.00     0.086 H 
HETATM   13  H6  UNL     1       2.569  -0.264   1.028  1.00  0.00     0.066 H 
HETATM   14  H7  UNL     1       2.909  -1.414  -0.308  1.00  0.00     0.066 H 
HETATM   15  H8  UNL     1       1.586  -1.794   0.844  1.00  0.00     0.066 H 
HETATM   16  H9  UNL     1       1.543   1.997   0.746  1.00  0.00     0.031 H 
HETATM   17  H10 UNL     1       0.598   2.301  -0.760  1.00  0.00     0.031 H 
HETATM   18  H11 UNL     1      -0.200   2.420   0.860  1.00  0.00     0.031 H 
HETATM   19  H12 UNL     1      -2.251   0.542   1.074  1.00  0.00     0.210 HD
TER      20      UNL     1 
ENDMDL
