REMARK FAKE_HEAD_ATOM=C4_O1
REMARK REAL_HEAD_ATOM=C2_C3
REMARK DUMMY_ATOM=C4_H7_H8_H9_O1
REMARK TORSION=H4_C2_C3_CL1
MODEL 0
HETATM    1  C1  UNL     1       0.502   1.386   0.947  1.00  0.00    -0.051 C 
HETATM    2  C2  UNL     1       0.133   0.263  -0.025  1.00  0.00     0.046 C 
HETATM    3  C3  UNL     1       1.368  -0.578  -0.384  1.00  0.00     0.026 C 
HETATM    4 CL1  UNL     1       2.525   0.347  -1.381  1.00  0.00    -0.128 Cl
HETATM    5  O1  UNL     1      -0.829  -0.566   0.605  1.00  0.00    -0.390 OA
HETATM    6  C4  UNL     1      -1.825  -0.965  -0.312  1.00  0.00     0.004 C 
HETATM    7  H1  UNL     1       1.232   2.084   0.486  1.00  0.00     0.030 H 
HETATM    8  H2  UNL     1       0.939   0.968   1.880  1.00  0.00     0.030 H 
HETATM    9  H3  UNL     1      -0.408   1.964   1.212  1.00  0.00     0.030 H 
HETATM   10  H4  UNL     1      -0.252   0.752  -0.954  1.00  0.00     0.084 H 
HETATM   11  H5  UNL     1       1.057  -1.469  -0.970  1.00  0.00     0.060 H 
HETATM   12  H6  UNL     1       1.879  -0.934   0.536  1.00  0.00     0.060 H 
HETATM   13  H7  UNL     1      -2.433  -0.091  -0.636  1.00  0.00     0.066 H 
HETATM   14  H8  UNL     1      -1.383  -1.479  -1.195  1.00  0.00     0.066 H 
HETATM   15  H9  UNL     1      -2.505  -1.682   0.191  1.00  0.00     0.066 H 
TER      16      UNL     1 
ENDMDL
