REMARK FAKE_HEAD_ATOM=C1_O1
REMARK REAL_HEAD_ATOM=C2_C3
REMARK DUMMY_ATOM=C1_H1_H2_H3_O1
REMARK TORSION=H4_C2_C3_C4
REMARK TORSION=C2_C3_C4_C5
REMARK TORSION=C3_C4_C5_C6
REMARK TORSION=C4_C5_C6_C7
REMARK TORSION=C5_C6_C7_C8
REMARK TORSION=C6_C7_C8_C9
REMARK TORSION=C7_C8_C9_C10
REMARK TORSION=C8_C9_C10_C11
REMARK TORSION=C9_C10_C11_O2
REMARK TORSION=C10_C11_O2_H24
MODEL 0
HETATM    1  C1  UNL     1       5.644   1.702   0.965  1.00  0.00     0.004 C 
HETATM    2  O1  UNL     1       5.259   0.466   0.407  1.00  0.00    -0.396 OA
HETATM    3  C2  UNL     1       3.872   0.278   0.593  1.00  0.00     0.019 C 
HETATM    4  C3  UNL     1       3.469  -1.071  -0.008  1.00  0.00    -0.045 C 
HETATM    5  C4  UNL     1       2.005  -1.440   0.280  1.00  0.00    -0.063 C 
HETATM    6  C5  UNL     1       1.010  -0.571  -0.503  1.00  0.00    -0.065 C 
HETATM    7  C6  UNL     1      -0.429  -1.060  -0.294  1.00  0.00    -0.065 C 
HETATM    8  C7  UNL     1      -1.427  -0.174  -1.055  1.00  0.00    -0.065 C 
HETATM    9  C8  UNL     1      -2.866  -0.716  -1.005  1.00  0.00    -0.065 C 
HETATM   10  C9  UNL     1      -3.477  -0.817   0.408  1.00  0.00    -0.063 C 
HETATM   11  C10 UNL     1      -3.489   0.497   1.211  1.00  0.00    -0.045 C 
HETATM   12  C11 UNL     1      -4.280   1.629   0.542  1.00  0.00     0.017 C 
HETATM   13  O2  UNL     1      -5.626   1.270   0.384  1.00  0.00    -0.401 OA
HETATM   14  H1  UNL     1       5.127   2.550   0.462  1.00  0.00     0.066 H 
HETATM   15  H2  UNL     1       6.734   1.836   0.810  1.00  0.00     0.066 H 
HETATM   16  H3  UNL     1       5.454   1.727   2.061  1.00  0.00     0.066 H 
HETATM   17  H4  UNL     1       3.304   1.087   0.080  1.00  0.00     0.074 H 
HETATM   18  H5  UNL     1       3.621   0.276   1.679  1.00  0.00     0.074 H 
HETATM   19  H6  UNL     1       3.651  -1.062  -1.105  1.00  0.00     0.036 H 
HETATM   20  H7  UNL     1       4.118  -1.859   0.433  1.00  0.00     0.036 H 
HETATM   21  H8  UNL     1       1.858  -2.504  -0.010  1.00  0.00     0.033 H 
HETATM   22  H9  UNL     1       1.803  -1.359   1.370  1.00  0.00     0.033 H 
HETATM   23  H10 UNL     1       1.257  -0.611  -1.587  1.00  0.00     0.033 H 
HETATM   24  H11 UNL     1       1.083   0.483  -0.160  1.00  0.00     0.033 H 
HETATM   25  H12 UNL     1      -0.518  -2.109  -0.653  1.00  0.00     0.033 H 
HETATM   26  H13 UNL     1      -0.660  -1.034   0.792  1.00  0.00     0.033 H 
HETATM   27  H14 UNL     1      -1.392   0.864  -0.664  1.00  0.00     0.033 H 
HETATM   28  H15 UNL     1      -1.122  -0.128  -2.124  1.00  0.00     0.033 H 
HETATM   29  H16 UNL     1      -2.883  -1.727  -1.466  1.00  0.00     0.033 H 
HETATM   30  H17 UNL     1      -3.512  -0.074  -1.640  1.00  0.00     0.033 H 
HETATM   31  H18 UNL     1      -4.519  -1.192   0.313  1.00  0.00     0.033 H 
HETATM   32  H19 UNL     1      -2.927  -1.586   0.991  1.00  0.00     0.033 H 
HETATM   33  H20 UNL     1      -3.942   0.293   2.205  1.00  0.00     0.036 H 
HETATM   34  H21 UNL     1      -2.449   0.837   1.400  1.00  0.00     0.036 H 
HETATM   35  H22 UNL     1      -3.819   1.920  -0.429  1.00  0.00     0.073 H 
HETATM   36  H23 UNL     1      -4.234   2.523   1.199  1.00  0.00     0.073 H 
HETATM   37  H24 UNL     1      -5.708   0.847  -0.510  1.00  0.00     0.209 HD
TER      38      UNL     1 
ENDMDL
