REMARK FAKE_HEAD_ATOM=C6_O2
REMARK REAL_HEAD_ATOM=C5_C4
REMARK DUMMY_ATOM=C6_H10_H11_H12_O2
REMARK TORSION=H8_C5_C4_O1
REMARK TORSION=C5_C4_O1_C3
REMARK TORSION=C4_O1_C3_C2
REMARK TORSION=O1_C3_C2_C1
MODEL 0
HETATM    1  C1  UNL     1       3.482   0.522   0.278  1.00  0.00    -0.123 C 
HETATM    2  C2  UNL     1       2.445   0.191  -0.496  1.00  0.00    -0.090 C 
HETATM    3  C3  UNL     1       1.465  -0.871  -0.082  1.00  0.00     0.034 C 
HETATM    4  O1  UNL     1       0.820  -0.515   1.127  1.00  0.00    -0.385 OA
HETATM    5  C4  UNL     1      -0.304   0.312   0.883  1.00  0.00     0.039 C 
HETATM    6  C5  UNL     1      -1.577  -0.534   0.804  1.00  0.00     0.039 C 
HETATM    7  O2  UNL     1      -2.714   0.302   0.695  1.00  0.00    -0.394 OA
HETATM    8  C6  UNL     1      -3.097   0.439  -0.656  1.00  0.00     0.004 C 
HETATM    9  H1  UNL     1       4.178   1.290  -0.045  1.00  0.00     0.066 H 
HETATM   10  H2  UNL     1       3.644   0.032   1.234  1.00  0.00     0.066 H 
HETATM   11  H3  UNL     1       2.311   0.693  -1.449  1.00  0.00     0.078 H 
HETATM   12  H4  UNL     1       0.746  -1.071  -0.910  1.00  0.00     0.080 H 
HETATM   13  H5  UNL     1       2.020  -1.819   0.085  1.00  0.00     0.080 H 
HETATM   14  H6  UNL     1      -0.403   1.012   1.740  1.00  0.00     0.077 H 
HETATM   15  H7  UNL     1      -0.194   0.947  -0.027  1.00  0.00     0.077 H 
HETATM   16  H8  UNL     1      -1.670  -1.111   1.748  1.00  0.00     0.077 H 
HETATM   17  H9  UNL     1      -1.497  -1.287  -0.015  1.00  0.00     0.077 H 
HETATM   18  H10 UNL     1      -2.261   0.823  -1.282  1.00  0.00     0.066 H 
HETATM   19  H11 UNL     1      -3.470  -0.529  -1.059  1.00  0.00     0.066 H 
HETATM   20  H12 UNL     1      -3.927   1.172  -0.717  1.00  0.00     0.066 H 
TER      21      UNL     1 
ENDMDL
