REMARK FAKE_HEAD_ATOM=C5_O1
REMARK REAL_HEAD_ATOM=C2_C3
REMARK DUMMY_ATOM=C5_H6_H7_H8_O1
REMARK TORSION=C1_C2_C3_C4
MODEL 0
HETATM    1  C1  UNL     1       0.350   1.445   0.414  1.00  0.00    -0.042 C 
HETATM    2  C2  UNL     1       0.206   0.071  -0.243  1.00  0.00     0.092 C 
HETATM    3  C3  UNL     1       1.538  -0.514  -0.444  1.00  0.00    -0.086 C 
HETATM    4  C4  UNL     1       2.631  -0.994  -0.610  1.00  0.00    -0.151 C 
HETATM    5  O1  UNL     1      -0.535  -0.791   0.601  1.00  0.00    -0.379 OA
HETATM    6  C5  UNL     1      -1.890  -0.826   0.209  1.00  0.00     0.006 C 
HETATM    7  H1  UNL     1      -0.648   1.914   0.539  1.00  0.00     0.032 H 
HETATM    8  H2  UNL     1       0.826   1.351   1.414  1.00  0.00     0.032 H 
HETATM    9  H3  UNL     1       0.970   2.114  -0.222  1.00  0.00     0.032 H 
HETATM   10  H4  UNL     1      -0.246   0.199  -1.256  1.00  0.00     0.102 H 
HETATM   11  H5  UNL     1       3.591  -1.416  -0.755  1.00  0.00     0.166 H 
HETATM   12  H6  UNL     1      -2.455  -1.438   0.941  1.00  0.00     0.066 H 
HETATM   13  H7  UNL     1      -2.340   0.192   0.202  1.00  0.00     0.066 H 
HETATM   14  H8  UNL     1      -1.999  -1.306  -0.789  1.00  0.00     0.066 H 
TER      15      UNL     1 
ENDMDL
