REMARK FAKE_HEAD_ATOM=C4_O1
REMARK REAL_HEAD_ATOM=C2_C3
REMARK DUMMY_ATOM=C4_H11_H12_H13_O1
REMARK TORSION=H4_C2_C3_N1
REMARK TORSION=C2_C3_N1_N2
MODEL 0
HETATM    1  C1  UNL     1      -1.086   1.446   0.428  1.00  0.00    -0.051 C 
HETATM    2  C2  UNL     1      -0.705   0.009   0.049  1.00  0.00     0.047 C 
HETATM    3  C3  UNL     1       0.745  -0.071  -0.456  1.00  0.00     0.025 C 
HETATM    4  N1  UNL     1       1.699   0.195   0.632  1.00  0.00    -0.155 NA
HETATM    5  N2  UNL     1       2.998  -0.192   0.236  1.00  0.00    -0.018 N 
HETATM    6  O1  UNL     1      -1.560  -0.435  -0.992  1.00  0.00    -0.390 OA
HETATM    7  C4  UNL     1      -2.595  -1.246  -0.480  1.00  0.00     0.004 C 
HETATM    8  H1  UNL     1      -0.922   2.132  -0.429  1.00  0.00     0.030 H 
HETATM    9  H2  UNL     1      -2.158   1.491   0.714  1.00  0.00     0.030 H 
HETATM   10  H3  UNL     1      -0.492   1.795   1.298  1.00  0.00     0.030 H 
HETATM   11  H4  UNL     1      -0.768  -0.626   0.968  1.00  0.00     0.084 H 
HETATM   12  H5  UNL     1       0.907  -1.098  -0.853  1.00  0.00     0.062 H 
HETATM   13  H6  UNL     1       0.902   0.646  -1.293  1.00  0.00     0.062 H 
HETATM   14  H7  UNL     1       1.721   1.229   0.802  1.00  0.00     0.153 HD
HETATM   15  H8  UNL     1       3.028  -1.230   0.105  1.00  0.00     0.296 HD
HETATM   16  H9  UNL     1       3.665   0.062   1.000  1.00  0.00     0.296 HD
HETATM   17  H10 UNL     1       3.275   0.304  -0.644  1.00  0.00     0.296 HD
HETATM   18  H11 UNL     1      -2.185  -2.197  -0.076  1.00  0.00     0.066 H 
HETATM   19  H12 UNL     1      -3.287  -1.501  -1.308  1.00  0.00     0.066 H 
HETATM   20  H13 UNL     1      -3.181  -0.713   0.300  1.00  0.00     0.066 H 
TER      21      UNL     1 
ENDMDL
