REMARK FAKE_HEAD_ATOM=C7_O2
REMARK REAL_HEAD_ATOM=C6_C5
REMARK DUMMY_ATOM=C7_H14_H15_H16_O2
REMARK TORSION=H12_C6_C5_C4
REMARK TORSION=C6_C5_C4_C3
REMARK TORSION=C5_C4_C3_C2
REMARK TORSION=C4_C3_C2_C1
REMARK TORSION=C3_C2_C1_O1
REMARK TORSION=C2_C1_O1_H1
MODEL 0
HETATM    1  O1  UNL     1       3.850   0.641  -1.400  1.00  0.00    -0.401 OA
HETATM    2  C1  UNL     1       3.761   0.132  -0.096  1.00  0.00     0.017 C 
HETATM    3  C2  UNL     1       2.300   0.034   0.356  1.00  0.00    -0.045 C 
HETATM    4  C3  UNL     1       1.498  -0.940  -0.523  1.00  0.00    -0.063 C 
HETATM    5  C4  UNL     1       0.075  -1.177   0.005  1.00  0.00    -0.063 C 
HETATM    6  C5  UNL     1      -0.835   0.048  -0.176  1.00  0.00    -0.045 C 
HETATM    7  C6  UNL     1      -2.273  -0.266   0.237  1.00  0.00     0.019 C 
HETATM    8  O2  UNL     1      -3.064   0.890   0.064  1.00  0.00    -0.396 OA
HETATM    9  C7  UNL     1      -4.392   0.610   0.446  1.00  0.00     0.004 C 
HETATM   10  H1  UNL     1       3.665   1.614  -1.337  1.00  0.00     0.209 HD
HETATM   11  H2  UNL     1       4.231  -0.875  -0.069  1.00  0.00     0.073 H 
HETATM   12  H3  UNL     1       4.327   0.782   0.609  1.00  0.00     0.073 H 
HETATM   13  H4  UNL     1       1.847   1.047   0.319  1.00  0.00     0.036 H 
HETATM   14  H5  UNL     1       2.281  -0.317   1.411  1.00  0.00     0.036 H 
HETATM   15  H6  UNL     1       2.024  -1.920  -0.543  1.00  0.00     0.033 H 
HETATM   16  H7  UNL     1       1.452  -0.561  -1.567  1.00  0.00     0.033 H 
HETATM   17  H8  UNL     1      -0.360  -2.033  -0.557  1.00  0.00     0.033 H 
HETATM   18  H9  UNL     1       0.114  -1.465   1.078  1.00  0.00     0.033 H 
HETATM   19  H10 UNL     1      -0.826   0.365  -1.242  1.00  0.00     0.036 H 
HETATM   20  H11 UNL     1      -0.464   0.889   0.447  1.00  0.00     0.036 H 
HETATM   21  H12 UNL     1      -2.653  -1.098  -0.400  1.00  0.00     0.074 H 
HETATM   22  H13 UNL     1      -2.274  -0.585   1.305  1.00  0.00     0.074 H 
HETATM   23  H14 UNL     1      -5.001   1.526   0.305  1.00  0.00     0.066 H 
HETATM   24  H15 UNL     1      -4.834  -0.189  -0.191  1.00  0.00     0.066 H 
HETATM   25  H16 UNL     1      -4.451   0.329   1.521  1.00  0.00     0.066 H 
TER      26      UNL     1 
ENDMDL
