REMARK FAKE_HEAD_ATOM=C10_O1
REMARK REAL_HEAD_ATOM=C9_C8
REMARK DUMMY_ATOM=C10_H19_H20_H21_O1
REMARK TORSION=H18_C9_C8_C7
REMARK TORSION=C9_C8_C7_C6
REMARK TORSION=C8_C7_C6_C5
REMARK TORSION=C7_C6_C5_C4
REMARK TORSION=C6_C5_C4_C3
REMARK TORSION=C5_C4_C3_C2
REMARK TORSION=C4_C3_C2_C1
MODEL 0
HETATM    1  C1  UNL     1       4.417   0.795   0.873  1.00  0.00    -0.077 C 
HETATM    2  C2  UNL     1       4.342  -0.475   0.026  1.00  0.00    -0.069 C 
HETATM    3  C3  UNL     1       3.460  -0.313  -1.225  1.00  0.00    -0.065 C 
HETATM    4  C4  UNL     1       1.982   0.006  -0.934  1.00  0.00    -0.065 C 
HETATM    5  C5  UNL     1       1.276  -1.110  -0.144  1.00  0.00    -0.065 C 
HETATM    6  C6  UNL     1      -0.249  -0.923  -0.100  1.00  0.00    -0.065 C 
HETATM    7  C7  UNL     1      -0.668   0.308   0.722  1.00  0.00    -0.063 C 
HETATM    8  C8  UNL     1      -2.175   0.333   1.040  1.00  0.00    -0.041 C 
HETATM    9  C9  UNL     1      -3.106   0.401  -0.193  1.00  0.00     0.034 C 
HETATM   10  O1  UNL     1      -4.453   0.415   0.252  1.00  0.00    -0.391 OA
HETATM   11  C10 UNL     1      -5.020  -0.875   0.179  1.00  0.00     0.004 C 
HETATM   12  C11 UNL     1      -2.870   1.675  -1.009  1.00  0.00    -0.052 C 
HETATM   13  H1  UNL     1       4.699   1.667   0.244  1.00  0.00     0.027 H 
HETATM   14  H2  UNL     1       3.445   0.993   1.369  1.00  0.00     0.027 H 
HETATM   15  H3  UNL     1       5.186   0.666   1.663  1.00  0.00     0.027 H 
HETATM   16  H4  UNL     1       3.985  -1.321   0.649  1.00  0.00     0.032 H 
HETATM   17  H5  UNL     1       5.371  -0.730  -0.309  1.00  0.00     0.032 H 
HETATM   18  H6  UNL     1       3.517  -1.249  -1.822  1.00  0.00     0.033 H 
HETATM   19  H7  UNL     1       3.879   0.500  -1.858  1.00  0.00     0.033 H 
HETATM   20  H8  UNL     1       1.468   0.138  -1.911  1.00  0.00     0.033 H 
HETATM   21  H9  UNL     1       1.906   0.970  -0.391  1.00  0.00     0.033 H 
HETATM   22  H10 UNL     1       1.669  -1.151   0.894  1.00  0.00     0.033 H 
HETATM   23  H11 UNL     1       1.489  -2.088  -0.628  1.00  0.00     0.033 H 
HETATM   24  H12 UNL     1      -0.635  -0.841  -1.138  1.00  0.00     0.033 H 
HETATM   25  H13 UNL     1      -0.693  -1.835   0.358  1.00  0.00     0.033 H 
HETATM   26  H14 UNL     1      -0.122   0.298   1.691  1.00  0.00     0.033 H 
HETATM   27  H15 UNL     1      -0.376   1.241   0.196  1.00  0.00     0.033 H 
HETATM   28  H16 UNL     1      -2.380   1.208   1.695  1.00  0.00     0.036 H 
HETATM   29  H17 UNL     1      -2.423  -0.573   1.633  1.00  0.00     0.036 H 
HETATM   30  H18 UNL     1      -2.891  -0.459  -0.871  1.00  0.00     0.082 H 
HETATM   31  H19 UNL     1      -6.035  -0.842   0.624  1.00  0.00     0.066 H 
HETATM   32  H20 UNL     1      -4.423  -1.618   0.753  1.00  0.00     0.066 H 
HETATM   33  H21 UNL     1      -5.126  -1.198  -0.880  1.00  0.00     0.066 H 
HETATM   34  H22 UNL     1      -3.644   1.759  -1.802  1.00  0.00     0.030 H 
HETATM   35  H23 UNL     1      -1.880   1.646  -1.510  1.00  0.00     0.030 H 
HETATM   36  H24 UNL     1      -2.930   2.575  -0.360  1.00  0.00     0.030 H 
TER      37      UNL     1 
ENDMDL
