REMARK FAKE_HEAD_ATOM=C3_O1
REMARK REAL_HEAD_ATOM=C2_C1
REMARK DUMMY_ATOM=C3_H4_H5_H6_O1
MODEL 0
HETATM    1  C1  UNL     1       1.888  -0.188   0.046  1.00  0.00     0.004 C 
HETATM    2  C2  UNL     1       0.494   0.317  -0.106  1.00  0.00     0.254 C 
HETATM    3  O1  UNL     1      -0.581  -0.521   0.205  1.00  0.00    -0.327 OA
HETATM    4  C3  UNL     1      -1.936  -0.112   0.065  1.00  0.00     0.013 C 
HETATM    5  O2  UNL     1       0.297   1.480  -0.554  1.00  0.00    -0.266 OA
HETATM    6  H1  UNL     1       2.553   0.629   0.399  1.00  0.00     0.041 H 
HETATM    7  H2  UNL     1       1.913  -1.015   0.786  1.00  0.00     0.041 H 
HETATM    8  H3  UNL     1       2.255  -0.562  -0.932  1.00  0.00     0.041 H 
HETATM    9  H4  UNL     1      -2.148   0.145  -0.995  1.00  0.00     0.067 H 
HETATM   10  H5  UNL     1      -2.602  -0.943   0.373  1.00  0.00     0.067 H 
HETATM   11  H6  UNL     1      -2.136   0.769   0.711  1.00  0.00     0.067 H 
TER      12      UNL     1 
ENDMDL
