REMARK FAKE_HEAD_ATOM=C1_O1
REMARK REAL_HEAD_ATOM=C2_C3
REMARK DUMMY_ATOM=C1_H1_H2_H3_O1
REMARK TORSION=H4_C2_C3_C4
MODEL 0
HETATM    1  C1  UNL     1       2.684   0.421   0.394  1.00  0.00     0.004 C 
HETATM    2  O1  UNL     1       1.356   0.392   0.865  1.00  0.00    -0.395 OA
HETATM    3  C2  UNL     1       0.552  -0.330  -0.044  1.00  0.00     0.026 C 
HETATM    4  C3  UNL     1      -0.887  -0.365   0.482  1.00  0.00     0.008 A 
HETATM    5  C4  UNL     1      -1.900  -0.876  -0.517  1.00  0.00     0.027 A 
HETATM    6  O2  UNL     1      -2.543   0.374  -0.606  1.00  0.00    -0.390 OA
HETATM    7  C5  UNL     1      -1.643   0.935   0.319  1.00  0.00     0.027 A 
HETATM    8  H1  UNL     1       2.753   0.946  -0.585  1.00  0.00     0.066 H 
HETATM    9  H2  UNL     1       3.304   0.985   1.121  1.00  0.00     0.066 H 
HETATM   10  H3  UNL     1       3.107  -0.605   0.316  1.00  0.00     0.066 H 
HETATM   11  H4  UNL     1       0.576   0.142  -1.055  1.00  0.00     0.075 H 
HETATM   12  H5  UNL     1       0.908  -1.383  -0.128  1.00  0.00     0.075 H 
HETATM   13  H6  UNL     1      -0.999  -0.819   1.492  1.00  0.00     0.049 H 
HETATM   14  H7  UNL     1      -2.579  -1.643  -0.085  1.00  0.00     0.075 H 
HETATM   15  H8  UNL     1      -1.470  -1.174  -1.500  1.00  0.00     0.075 H 
HETATM   16  H9  UNL     1      -1.054   1.757  -0.145  1.00  0.00     0.075 H 
HETATM   17  H10 UNL     1      -2.168   1.244   1.250  1.00  0.00     0.075 H 
TER      18      UNL     1 
ENDMDL
