REMARK FAKE_HEAD_ATOM=C10_O2
REMARK REAL_HEAD_ATOM=C9_C8
REMARK DUMMY_ATOM=C10_H20_H21_H22_O2
REMARK TORSION=H18_C9_C8_C7
REMARK TORSION=C9_C8_C7_C7
REMARK TORSION=C8_C7_C6_C5
REMARK TORSION=C7_C6_C5_C4
REMARK TORSION=C6_C5_C4_C3
REMARK TORSION=C5_C4_C3_C2
REMARK TORSION=C4_C3_C2_C1
REMARK TORSION=C3_C2_C1_O1
REMARK TORSION=C2_C1_O1_H1
MODEL 0
HETATM    1  O1  UNL     1      -6.300   0.898  -0.284  1.00  0.00    -0.401 OA
HETATM    2  C1  UNL     1      -4.975   0.519  -0.536  1.00  0.00     0.017 C 
HETATM    3  C2  UNL     1      -4.546  -0.583   0.440  1.00  0.00    -0.045 C 
HETATM    4  C3  UNL     1      -3.167  -1.172   0.104  1.00  0.00    -0.063 C 
HETATM    5  C4  UNL     1      -2.019  -0.193   0.396  1.00  0.00    -0.065 C 
HETATM    6  C5  UNL     1      -0.657  -0.861   0.169  1.00  0.00    -0.065 C 
HETATM    7  C6  UNL     1       0.490   0.117   0.449  1.00  0.00    -0.065 C 
HETATM    8  C7  UNL     1       1.851  -0.552   0.223  1.00  0.00    -0.063 C 
HETATM    9  C8  UNL     1       2.998   0.426   0.504  1.00  0.00    -0.045 C 
HETATM   10  C9  UNL     1       4.360  -0.238   0.279  1.00  0.00     0.019 C 
HETATM   11  O2  UNL     1       5.402   0.658   0.619  1.00  0.00    -0.396 OA
HETATM   12  C10 UNL     1       5.891   1.305  -0.536  1.00  0.00     0.004 C 
HETATM   13  H1  UNL     1      -6.286   1.454   0.539  1.00  0.00     0.209 HD
HETATM   14  H2  UNL     1      -4.912   0.139  -1.578  1.00  0.00     0.073 H 
HETATM   15  H3  UNL     1      -4.306   1.404  -0.450  1.00  0.00     0.073 H 
HETATM   16  H4  UNL     1      -5.294  -1.404   0.394  1.00  0.00     0.036 H 
HETATM   17  H5  UNL     1      -4.546  -0.186   1.479  1.00  0.00     0.036 H 
HETATM   18  H6  UNL     1      -3.025  -2.086   0.722  1.00  0.00     0.033 H 
HETATM   19  H7  UNL     1      -3.139  -1.481  -0.964  1.00  0.00     0.033 H 
HETATM   20  H8  UNL     1      -2.101   0.690  -0.273  1.00  0.00     0.033 H 
HETATM   21  H9  UNL     1      -2.087   0.152   1.451  1.00  0.00     0.033 H 
HETATM   22  H10 UNL     1      -0.562  -1.742   0.842  1.00  0.00     0.033 H 
HETATM   23  H11 UNL     1      -0.592  -1.213  -0.885  1.00  0.00     0.033 H 
HETATM   24  H12 UNL     1       0.423   0.469   1.502  1.00  0.00     0.033 H 
HETATM   25  H13 UNL     1       0.396   0.997  -0.224  1.00  0.00     0.033 H 
HETATM   26  H14 UNL     1       1.917  -0.904  -0.830  1.00  0.00     0.033 H 
HETATM   27  H15 UNL     1       1.945  -1.432   0.897  1.00  0.00     0.033 H 
HETATM   28  H16 UNL     1       2.903   1.307  -0.167  1.00  0.00     0.036 H 
HETATM   29  H17 UNL     1       2.936   0.779   1.557  1.00  0.00     0.036 H 
HETATM   30  H18 UNL     1       4.433  -0.634  -0.763  1.00  0.00     0.074 H 
HETATM   31  H19 UNL     1       4.440  -1.117   0.954  1.00  0.00     0.074 H 
HETATM   32  H20 UNL     1       5.081   1.835  -1.083  1.00  0.00     0.066 H 
HETATM   33  H21 UNL     1       6.403   0.580  -1.206  1.00  0.00     0.066 H 
HETATM   34  H22 UNL     1       6.639   2.063  -0.226  1.00  0.00     0.066 H 
TER      35      UNL     1 
ENDMDL
