REMARK FAKE_HEAD_ATOM=C6_O1
REMARK REAL_HEAD_ATOM=C5_C4
REMARK DUMMY_ATOM=C6_H11_H12_H13_O1
REMARK TORSION=H9_C5_C4_C3
REMARK TORSION=C5_C4_C3_C2
REMARK TORSION=C4_C3_C2_C1
REMARK TORSION=C3_C2_O2_H14
MODEL 0
HETATM    1  C1  UNL     1      -2.733   1.206  -0.359  1.00  0.00    -0.052 C 
HETATM    2  C2  UNL     1      -2.341  -0.166   0.193  1.00  0.00     0.032 C 
HETATM    3  C3  UNL     1      -0.879  -0.203   0.688  1.00  0.00    -0.040 C 
HETATM    4  C4  UNL     1       0.155  -0.036  -0.438  1.00  0.00    -0.043 C 
HETATM    5  C5  UNL     1       1.580  -0.185   0.095  1.00  0.00     0.019 C 
HETATM    6  O1  UNL     1       2.490  -0.012  -0.970  1.00  0.00    -0.396 OA
HETATM    7  C6  UNL     1       3.807  -0.146  -0.486  1.00  0.00     0.004 C 
HETATM    8  O2  UNL     1      -2.559  -1.144  -0.792  1.00  0.00    -0.396 OA
HETATM    9  H1  UNL     1      -2.503   2.002   0.380  1.00  0.00     0.030 H 
HETATM   10  H2  UNL     1      -3.825   1.225  -0.565  1.00  0.00     0.030 H 
HETATM   11  H3  UNL     1      -2.200   1.420  -1.309  1.00  0.00     0.030 H 
HETATM   12  H4  UNL     1      -3.003  -0.369   1.067  1.00  0.00     0.082 H 
HETATM   13  H5  UNL     1      -0.730   0.593   1.450  1.00  0.00     0.036 H 
HETATM   14  H6  UNL     1      -0.709  -1.180   1.193  1.00  0.00     0.036 H 
HETATM   15  H7  UNL     1      -0.015  -0.802  -1.225  1.00  0.00     0.036 H 
HETATM   16  H8  UNL     1       0.054   0.971  -0.897  1.00  0.00     0.036 H 
HETATM   17  H9  UNL     1       1.748   0.586   0.882  1.00  0.00     0.074 H 
HETATM   18  H10 UNL     1       1.689  -1.201   0.541  1.00  0.00     0.074 H 
HETATM   19  H11 UNL     1       4.511  -0.009  -1.332  1.00  0.00     0.066 H 
HETATM   20  H12 UNL     1       3.981  -1.163  -0.067  1.00  0.00     0.066 H 
HETATM   21  H13 UNL     1       4.039   0.633   0.274  1.00  0.00     0.066 H 
HETATM   22  H14 UNL     1      -2.557  -2.022  -0.329  1.00  0.00     0.210 HD
TER      23      UNL     1 
ENDMDL
