REMARK FAKE_HEAD_ATOM=C3_O1
REMARK REAL_HEAD_ATOM=C2_C1
REMARK DUMMY_ATOM=C3_H3_H4_H5_O1
REMARK TORSION=H1_C2_C1_C4
MODEL 0
HETATM    1 CL1  UNL     1      -1.914  -2.331  -0.208  1.00  0.00    -0.088 Cl
HETATM    2  C1  UNL     1      -1.360  -0.682   0.058  1.00  0.00     0.026 C 
HETATM    3  C2  UNL     1       0.073  -0.430   0.428  1.00  0.00     0.052 C 
HETATM    4  O1  UNL     1       0.692   0.322  -0.594  1.00  0.00    -0.391 OA
HETATM    5  C3  UNL     1       2.030   0.585  -0.236  1.00  0.00     0.004 C 
HETATM    6  C4  UNL     1      -2.227   0.329  -0.059  1.00  0.00    -0.103 C 
HETATM    7  H1  UNL     1       0.094   0.117   1.398  1.00  0.00     0.083 H 
HETATM    8  H2  UNL     1       0.587  -1.409   0.556  1.00  0.00     0.083 H 
HETATM    9  H3  UNL     1       2.505   1.170  -1.050  1.00  0.00     0.066 H 
HETATM   10  H4  UNL     1       2.086   1.195   0.693  1.00  0.00     0.066 H 
HETATM   11  H5  UNL     1       2.609  -0.358  -0.118  1.00  0.00     0.066 H 
HETATM   12  H6  UNL     1      -3.263   0.139  -0.322  1.00  0.00     0.068 H 
HETATM   13  H7  UNL     1      -1.911   1.355   0.106  1.00  0.00     0.068 H 
TER      14      UNL     1 
ENDMDL
