REMARK FAKE_HEAD_ATOM=C5_O1
REMARK REAL_HEAD_ATOM=C4_C3
REMARK DUMMY_ATOM=C5_H10_H11_H12_O1
REMARK TORSION=H8_C4_C3_C2
REMARK TORSION=C4_C3_C2_N1
REMARK TORSION=C3_C2_N1_C1
MODEL 0
HETATM    1  C1  UNL     1      -2.260   1.169   0.629  1.00  0.00     0.095 C 
HETATM    2  N1  UNL     1      -1.554  -0.110   0.442  1.00  0.00     0.080 N 
HETATM    3  C2  UNL     1      -0.732  -0.091  -0.790  1.00  0.00     0.114 C 
HETATM    4  C3  UNL     1       0.626   0.586  -0.551  1.00  0.00    -0.020 C 
HETATM    5  C4  UNL     1       1.446  -0.129   0.530  1.00  0.00     0.021 C 
HETATM    6  O1  UNL     1       2.686   0.527   0.713  1.00  0.00    -0.396 OA
HETATM    7  C5  UNL     1       3.703  -0.129  -0.012  1.00  0.00     0.004 C 
HETATM    8  C6  UNL     1      -2.535  -1.206   0.381  1.00  0.00     0.095 C 
HETATM    9  H1  UNL     1      -2.851   1.145   1.570  1.00  0.00     0.071 H 
HETATM   10  H2  UNL     1      -1.537   2.004   0.728  1.00  0.00     0.071 H 
HETATM   11  H3  UNL     1      -2.947   1.382  -0.221  1.00  0.00     0.071 H 
HETATM   12  H4  UNL     1      -0.525  -1.127  -1.143  1.00  0.00     0.079 H 
HETATM   13  H5  UNL     1      -1.264   0.427  -1.620  1.00  0.00     0.079 H 
HETATM   14  H6  UNL     1       0.486   1.650  -0.269  1.00  0.00     0.038 H 
HETATM   15  H7  UNL     1       1.193   0.573  -1.506  1.00  0.00     0.038 H 
HETATM   16  H8  UNL     1       1.545  -1.215   0.289  1.00  0.00     0.074 H 
HETATM   17  H9  UNL     1       0.894  -0.072   1.492  1.00  0.00     0.074 H 
HETATM   18  H10 UNL     1       3.453  -0.203  -1.093  1.00  0.00     0.066 H 
HETATM   19  H11 UNL     1       4.639   0.461   0.077  1.00  0.00     0.066 H 
HETATM   20  H12 UNL     1       3.899  -1.139   0.411  1.00  0.00     0.066 H 
HETATM   21  H13 UNL     1      -3.198  -1.104  -0.508  1.00  0.00     0.071 H 
HETATM   22  H14 UNL     1      -2.011  -2.185   0.334  1.00  0.00     0.071 H 
HETATM   23  H15 UNL     1      -3.159  -1.218   1.301  1.00  0.00     0.071 H 
TER      24      UNL     1 
ENDMDL
