REMARK FAKE_HEAD_ATOM=C4_O1
REMARK REAL_HEAD_ATOM=C3_C2
REMARK DUMMY_ATOM=C4_H10_H11_H12_O1
REMARK TORSION=H8_C3_C2_N1
REMARK TORSION=C3_C2_N1_C1
MODEL 0
HETATM    1  C1  UNL     1      -2.483  -0.247  -0.074  1.00  0.00     0.065 C 
HETATM    2  N1  UNL     1      -1.390   0.364  -0.838  1.00  0.00    -0.077 N 
HETATM    3  C2  UNL     1      -0.239   0.720   0.012  1.00  0.00     0.101 C 
HETATM    4  C3  UNL     1       0.572  -0.511   0.447  1.00  0.00     0.041 C 
HETATM    5  O1  UNL     1       1.714  -0.104   1.179  1.00  0.00    -0.394 OA
HETATM    6  C4  UNL     1       2.855  -0.093   0.349  1.00  0.00     0.004 C 
HETATM    7  H1  UNL     1      -2.775   0.395   0.786  1.00  0.00     0.067 H 
HETATM    8  H2  UNL     1      -3.372  -0.369  -0.729  1.00  0.00     0.067 H 
HETATM    9  H3  UNL     1      -2.195  -1.255   0.293  1.00  0.00     0.067 H 
HETATM   10  H4  UNL     1      -1.754   1.240  -1.280  1.00  0.00     0.276 HD
HETATM   11  H5  UNL     1      -1.092  -0.286  -1.602  1.00  0.00     0.276 HD
HETATM   12  H6  UNL     1      -0.574   1.286   0.910  1.00  0.00     0.079 H 
HETATM   13  H7  UNL     1       0.430   1.396  -0.564  1.00  0.00     0.079 H 
HETATM   14  H8  UNL     1      -0.049  -1.131   1.126  1.00  0.00     0.076 H 
HETATM   15  H9  UNL     1       0.812  -1.152  -0.435  1.00  0.00     0.076 H 
HETATM   16  H10 UNL     1       2.706   0.553  -0.544  1.00  0.00     0.066 H 
HETATM   17  H11 UNL     1       3.125  -1.127   0.038  1.00  0.00     0.066 H 
HETATM   18  H12 UNL     1       3.708   0.320   0.925  1.00  0.00     0.066 H 
TER      19      UNL     1 
ENDMDL
