REMARK FAKE_HEAD_ATOM=C3_O2
REMARK REAL_HEAD_ATOM=C2_C1
REMARK DUMMY_ATOM=C3_H6_H7_H8_O2
REMARK TORSION=H4_C2_C1_O1
REMARK TORSION=C2_C1_O1_H1
MODEL 0
HETATM    1  O1  UNL     1       2.198  -1.295   0.124  1.00  0.00    -0.399 OA
HETATM    2  C1  UNL     1       1.477  -0.174  -0.306  1.00  0.00     0.036 C 
HETATM    3  C2  UNL     1       0.033  -0.284   0.163  1.00  0.00     0.038 C 
HETATM    4  O2  UNL     1      -0.684   0.851  -0.276  1.00  0.00    -0.394 OA
HETATM    5  C3  UNL     1      -2.022   0.754   0.156  1.00  0.00     0.004 C 
HETATM    6  H1  UNL     1       3.125  -1.170  -0.208  1.00  0.00     0.209 HD
HETATM    7  H2  UNL     1       1.932   0.750   0.116  1.00  0.00     0.077 H 
HETATM    8  H3  UNL     1       1.500  -0.116  -1.418  1.00  0.00     0.077 H 
HETATM    9  H4  UNL     1       0.029  -0.346   1.276  1.00  0.00     0.077 H 
HETATM   10  H5  UNL     1      -0.405  -1.216  -0.264  1.00  0.00     0.077 H 
HETATM   11  H6  UNL     1      -2.573   1.650  -0.195  1.00  0.00     0.066 H 
HETATM   12  H7  UNL     1      -2.087   0.733   1.267  1.00  0.00     0.066 H 
HETATM   13  H8  UNL     1      -2.523  -0.140  -0.279  1.00  0.00     0.066 H 
TER      14      UNL     1 
ENDMDL
