REMARK FAKE_HEAD_ATOM=C4_O2
REMARK REAL_HEAD_ATOM=C1_C2
REMARK DUMMY_ATOM=C4_H4_H5_H6_O2
MODEL 0
HETATM    1  O1  UNL     1      -0.334  -1.822  -0.422  1.00  0.00    -0.260 OA
HETATM    2  C1  UNL     1       0.124  -0.690  -0.109  1.00  0.00     0.281 C 
HETATM    3  C2  UNL     1       1.570  -0.538   0.108  1.00  0.00    -0.019 C 
HETATM    4  C3  UNL     1       2.119   0.628   0.440  1.00  0.00    -0.116 C 
HETATM    5  O2  UNL     1      -0.733   0.408   0.031  1.00  0.00    -0.323 OA
HETATM    6  C4  UNL     1      -2.138   0.313  -0.168  1.00  0.00     0.013 C 
HETATM    7  H1  UNL     1       2.210  -1.404  -0.007  1.00  0.00     0.091 H 
HETATM    8  H2  UNL     1       3.189   0.697   0.591  1.00  0.00     0.067 H 
HETATM    9  H3  UNL     1       1.520   1.521   0.566  1.00  0.00     0.067 H 
HETATM   10  H4  UNL     1      -2.576  -0.410   0.552  1.00  0.00     0.067 H 
HETATM   11  H5  UNL     1      -2.598   1.309  -0.001  1.00  0.00     0.067 H 
HETATM   12  H6  UNL     1      -2.354  -0.013  -1.207  1.00  0.00     0.067 H 
TER      13      UNL     1 
ENDMDL
