REMARK FAKE_HEAD_ATOM=C8_O1
REMARK REAL_HEAD_ATOM=C7_C6
REMARK DUMMY_ATOM=C8_H16_H17_H18_O1
REMARK TORSION=H14_C7_C6_C5
REMARK TORSION=C7_C6_C5_C4
REMARK TORSION=C6_C5_C4_C3
REMARK TORSION=C5_C4_C3_C2
REMARK TORSION=C4_C3_C2_C1
MODEL 0
HETATM    1  C1  UNL     1       3.986   0.247   0.253  1.00  0.00    -0.077 C 
HETATM    2  C2  UNL     1       3.303  -1.012  -0.282  1.00  0.00    -0.069 C 
HETATM    3  C3  UNL     1       1.789  -1.021  -0.021  1.00  0.00    -0.065 C 
HETATM    4  C4  UNL     1       1.040   0.031  -0.858  1.00  0.00    -0.065 C 
HETATM    5  C5  UNL     1      -0.486  -0.145  -0.800  1.00  0.00    -0.063 C 
HETATM    6  C6  UNL     1      -1.069   0.208   0.579  1.00  0.00    -0.045 C 
HETATM    7  C7  UNL     1      -2.597   0.134   0.582  1.00  0.00     0.019 C 
HETATM    8  O1  UNL     1      -3.124   1.138  -0.261  1.00  0.00    -0.396 OA
HETATM    9  C8  UNL     1      -4.531   1.048  -0.270  1.00  0.00     0.004 C 
HETATM   10  H1  UNL     1       5.086   0.147   0.137  1.00  0.00     0.027 H 
HETATM   11  H2  UNL     1       3.659   1.142  -0.316  1.00  0.00     0.027 H 
HETATM   12  H3  UNL     1       3.755   0.387   1.330  1.00  0.00     0.027 H 
HETATM   13  H4  UNL     1       3.752  -1.894   0.224  1.00  0.00     0.032 H 
HETATM   14  H5  UNL     1       3.505  -1.112  -1.371  1.00  0.00     0.032 H 
HETATM   15  H6  UNL     1       1.404  -2.032  -0.279  1.00  0.00     0.033 H 
HETATM   16  H7  UNL     1       1.604  -0.854   1.062  1.00  0.00     0.033 H 
HETATM   17  H8  UNL     1       1.354  -0.062  -1.920  1.00  0.00     0.033 H 
HETATM   18  H9  UNL     1       1.305   1.053  -0.514  1.00  0.00     0.033 H 
HETATM   19  H10 UNL     1      -0.756  -1.190  -1.069  1.00  0.00     0.033 H 
HETATM   20  H11 UNL     1      -0.934   0.525  -1.565  1.00  0.00     0.033 H 
HETATM   21  H12 UNL     1      -0.753   1.233   0.873  1.00  0.00     0.036 H 
HETATM   22  H13 UNL     1      -0.687  -0.506   1.339  1.00  0.00     0.036 H 
HETATM   23  H14 UNL     1      -2.944   0.288   1.630  1.00  0.00     0.074 H 
HETATM   24  H15 UNL     1      -2.909  -0.881   0.244  1.00  0.00     0.074 H 
HETATM   25  H16 UNL     1      -4.869   0.072  -0.685  1.00  0.00     0.066 H 
HETATM   26  H17 UNL     1      -4.931   1.848  -0.927  1.00  0.00     0.066 H 
HETATM   27  H18 UNL     1      -4.953   1.206   0.747  1.00  0.00     0.066 H 
TER      28      UNL     1 
ENDMDL
