REMARK FAKE_HEAD_ATOM=C4_O1
REMARK REAL_HEAD_ATOM=C2_C3
REMARK DUMMY_ATOM=C4_H11_H12_H13_O1
REMARK TORSION=H4_C2_C3_N1
REMARK TORSION=C2_C3_N1_N2
MODEL 0
HETATM    1  C1  UNL     1      -0.999   1.963   0.299  1.00  0.00    -0.051 C 
HETATM    2  C2  UNL     1      -0.642   0.491   0.075  1.00  0.00     0.047 C 
HETATM    3  C3  UNL     1       0.819   0.365  -0.375  1.00  0.00     0.025 C 
HETATM    4  N1  UNL     1       1.155  -1.046  -0.616  1.00  0.00    -0.155 NA
HETATM    5  N2  UNL     1       2.528  -1.165  -0.923  1.00  0.00    -0.018 N 
HETATM    6  O1  UNL     1      -0.808  -0.223   1.290  1.00  0.00    -0.390 OA
HETATM    7  C4  UNL     1      -2.041  -0.908   1.301  1.00  0.00     0.004 C 
HETATM    8  H1  UNL     1      -0.367   2.399   1.102  1.00  0.00     0.030 H 
HETATM    9  H2  UNL     1      -0.848   2.544  -0.636  1.00  0.00     0.030 H 
HETATM   10  H3  UNL     1      -2.064   2.056   0.596  1.00  0.00     0.030 H 
HETATM   11  H4  UNL     1      -1.279   0.104  -0.759  1.00  0.00     0.084 H 
HETATM   12  H5  UNL     1       0.975   0.955  -1.307  1.00  0.00     0.062 H 
HETATM   13  H6  UNL     1       1.480   0.779   0.419  1.00  0.00     0.062 H 
HETATM   14  H7  UNL     1       0.612  -1.372  -1.451  1.00  0.00     0.153 HD
HETATM   15  H8  UNL     1       2.764  -0.598  -1.771  1.00  0.00     0.296 HD
HETATM   16  H9  UNL     1       3.098  -0.862  -0.100  1.00  0.00     0.296 HD
HETATM   17  H10 UNL     1       2.734  -2.172  -1.114  1.00  0.00     0.296 HD
HETATM   18  H11 UNL     1      -2.173  -1.385   2.293  1.00  0.00     0.066 H 
HETATM   19  H12 UNL     1      -2.050  -1.714   0.534  1.00  0.00     0.066 H 
HETATM   20  H13 UNL     1      -2.895  -0.212   1.144  1.00  0.00     0.066 H 
TER      21      UNL     1 
ENDMDL
