REMARK FAKE_HEAD_ATOM=C5_O1
REMARK REAL_HEAD_ATOM=C4_C3
REMARK DUMMY_ATOM=C5_H10_H8_H9_O1
REMARK TORSION=H7_C4_C3_C2
REMARK TORSION=C4_C3_C2_C1
MODEL 0
HETATM    1  C1  UNL     1      -2.632   0.290  -0.943  1.00  0.00    -0.073 C 
HETATM    2  C2  UNL     1      -1.475  -0.175  -0.048  1.00  0.00    -0.059 C 
HETATM    3  C3  UNL     1      -0.180   0.584  -0.432  1.00  0.00    -0.039 C 
HETATM    4  C4  UNL     1       1.056   0.280   0.449  1.00  0.00     0.035 C 
HETATM    5  O1  UNL     1       2.153   1.046  -0.024  1.00  0.00    -0.391 OA
HETATM    6  C5  UNL     1       2.988   0.269  -0.855  1.00  0.00     0.004 C 
HETATM    7  C6  UNL     1       0.815   0.663   1.912  1.00  0.00    -0.052 C 
HETATM    8  C7  UNL     1      -1.311  -1.698  -0.161  1.00  0.00    -0.073 C 
HETATM    9  H1  UNL     1      -2.781   1.386  -0.841  1.00  0.00     0.028 H 
HETATM   10  H2  UNL     1      -2.423   0.054  -2.008  1.00  0.00     0.028 H 
HETATM   11  H3  UNL     1      -3.577  -0.212  -0.643  1.00  0.00     0.028 H 
HETATM   12  H4  UNL     1      -1.755   0.074   0.998  1.00  0.00     0.039 H 
HETATM   13  H5  UNL     1       0.071   0.347  -1.489  1.00  0.00     0.037 H 
HETATM   14  H6  UNL     1      -0.377   1.679  -0.389  1.00  0.00     0.037 H 
HETATM   15  H7  UNL     1       1.266  -0.816   0.434  1.00  0.00     0.082 H 
HETATM   16  H8  UNL     1       3.494  -0.529  -0.268  1.00  0.00     0.066 H 
HETATM   17  H9  UNL     1       2.422  -0.174  -1.704  1.00  0.00     0.066 H 
HETATM   18  H10 UNL     1       3.774   0.926  -1.280  1.00  0.00     0.066 H 
HETATM   19  H11 UNL     1       1.764   0.571   2.482  1.00  0.00     0.030 H 
HETATM   20  H12 UNL     1       0.456   1.711   1.990  1.00  0.00     0.030 H 
HETATM   21  H13 UNL     1       0.076  -0.018   2.383  1.00  0.00     0.030 H 
HETATM   22  H14 UNL     1      -2.287  -2.204  -0.004  1.00  0.00     0.028 H 
HETATM   23  H15 UNL     1      -0.619  -2.076   0.620  1.00  0.00     0.028 H 
HETATM   24  H16 UNL     1      -0.921  -1.978  -1.163  1.00  0.00     0.028 H 
TER      25      UNL     1 
ENDMDL
