REMARK FAKE_HEAD_ATOM=C4_O1
REMARK REAL_HEAD_ATOM=C2_C3
REMARK DUMMY_ATOM=C4_H5_H6_H7_O1
REMARK TORSION=H3_C3_C2_C1
REMARK TORSION=C3_C2_C1_N1
MODEL 0
HETATM    1  N1  UNL     1       3.572  -0.167  -0.641  1.00  0.00    -0.197 NA
HETATM    2  C1  UNL     1       2.589   0.124  -0.105  1.00  0.00     0.061 C 
HETATM    3  C2  UNL     1       1.342   0.494   0.575  1.00  0.00     0.034 C 
HETATM    4  C3  UNL     1       0.137  -0.094  -0.154  1.00  0.00     0.030 C 
HETATM    5  O1  UNL     1      -1.040   0.282   0.529  1.00  0.00    -0.395 OA
HETATM    6  C4  UNL     1      -2.159  -0.257  -0.138  1.00  0.00     0.004 C 
HETATM    7  H1  UNL     1       1.261   1.601   0.602  1.00  0.00     0.058 H 
HETATM    8  H2  UNL     1       1.374   0.111   1.618  1.00  0.00     0.058 H 
HETATM    9  H3  UNL     1       0.126   0.297  -1.198  1.00  0.00     0.075 H 
HETATM   10  H4  UNL     1       0.239  -1.205  -0.174  1.00  0.00     0.075 H 
HETATM   11  H5  UNL     1      -3.076   0.046   0.408  1.00  0.00     0.066 H 
HETATM   12  H6  UNL     1      -2.240   0.138  -1.175  1.00  0.00     0.066 H 
HETATM   13  H7  UNL     1      -2.126  -1.370  -0.147  1.00  0.00     0.066 H 
TER      14      UNL     1 
ENDMDL
