REMARK FAKE_HEAD_ATOM=C1_O1
REMARK REAL_HEAD_ATOM=C2_H4
REMARK DUMMY_ATOM=C1_H1_H2_H3_O1
MODEL 0
HETATM    1  C1  UNL     1       1.127   0.165   0.283  1.00  0.00     0.003 C 
HETATM    2  O1  UNL     1       0.004   0.697  -0.384  1.00  0.00    -0.401 OA
HETATM    3  C2  UNL     1      -1.126  -0.092  -0.088  1.00  0.00     0.003 C 
HETATM    4  H1  UNL     1       0.988   0.189   1.387  1.00  0.00     0.066 H 
HETATM    5  H2  UNL     1       1.347  -0.870  -0.059  1.00  0.00     0.066 H 
HETATM    6  H3  UNL     1       2.010   0.793   0.044  1.00  0.00     0.066 H 
HETATM    7  H4  UNL     1      -1.353  -0.079   1.001  1.00  0.00     0.066 H 
HETATM    8  H5  UNL     1      -2.003   0.335  -0.618  1.00  0.00     0.066 H 
HETATM    9  H6  UNL     1      -0.994  -1.137  -0.445  1.00  0.00     0.066 H 
TER      10      UNL     1 
ENDMDL
