REMARK FAKE_HEAD_ATOM=C7_O1
REMARK REAL_HEAD_ATOM=C4_C3
REMARK DUMMY_ATOM=C7_H14_H15_H16_O1
REMARK TORSION=H8_C4_C5_C6
REMARK TORSION-H8_C4_C3_C2
REMARK TORSION-C4_C3_C2_C1
MODEL 0
HETATM    1  C1  UNL     1      -3.224  -0.784   0.520  1.00  0.00    -0.076 C 
HETATM    2  C2  UNL     1      -1.705  -0.818   0.669  1.00  0.00    -0.066 C 
HETATM    3  C3  UNL     1      -1.032   0.161  -0.305  1.00  0.00    -0.041 C 
HETATM    4  C4  UNL     1       0.496   0.262  -0.100  1.00  0.00     0.037 C 
HETATM    5  C5  UNL     1       1.213  -1.001  -0.616  1.00  0.00    -0.044 C 
HETATM    6  C6  UNL     1       2.724  -0.918  -0.402  1.00  0.00    -0.074 C 
HETATM    7  O1  UNL     1       0.975   1.380  -0.831  1.00  0.00    -0.391 OA
HETATM    8  C7  UNL     1       1.204   2.478   0.024  1.00  0.00     0.004 C 
HETATM    9  H1  UNL     1      -3.683  -1.507   1.227  1.00  0.00     0.027 H 
HETATM   10  H2  UNL     1      -3.612   0.231   0.749  1.00  0.00     0.027 H 
HETATM   11  H3  UNL     1      -3.516  -1.064  -0.514  1.00  0.00     0.027 H 
HETATM   12  H4  UNL     1      -1.443  -0.550   1.716  1.00  0.00     0.032 H 
HETATM   13  H5  UNL     1      -1.360  -1.855   0.474  1.00  0.00     0.032 H 
HETATM   14  H6  UNL     1      -1.475   1.169  -0.148  1.00  0.00     0.036 H 
HETATM   15  H7  UNL     1      -1.253  -0.138  -1.354  1.00  0.00     0.036 H 
HETATM   16  H8  UNL     1       0.704   0.335   0.997  1.00  0.00     0.083 H 
HETATM   17  H9  UNL     1       0.845  -1.899  -0.079  1.00  0.00     0.036 H 
HETATM   18  H10 UNL     1       1.009  -1.136  -1.700  1.00  0.00     0.036 H 
HETATM   19  H11 UNL     1       3.155  -0.074  -0.981  1.00  0.00     0.027 H 
HETATM   20  H12 UNL     1       3.200  -1.860  -0.748  1.00  0.00     0.027 H 
HETATM   21  H13 UNL     1       2.955  -0.780   0.676  1.00  0.00     0.027 H 
HETATM   22  H14 UNL     1       1.494   3.354  -0.592  1.00  0.00     0.066 H 
HETATM   23  H15 UNL     1       0.286   2.751   0.591  1.00  0.00     0.066 H 
HETATM   24  H16 UNL     1       2.042   2.263   0.724  1.00  0.00     0.066 H 
TER      25      UNL     1 
ENDMDL
