REMARK FAKE_HEAD_ATOM=C7_O2
REMARK REAL_HEAD_ATOM=C5_C6
REMARK DUMMY_ATOM=C7_H12_H13_H14_O2
REMARK TORSION=H10_C6_C5_C4
REMARK TORSION=C6_C5_C4_C3
REMARK TORSION=C5_C4_C3_C2
REMARK TORSION=C4_C3_C2_C1
REMARK TORSION=C3_C2_C1_O1
REMARK TORSION=C2_C1_O1_H1
MODEL 0
HETATM    1  O1  UNL     1      -3.229   0.773   1.467  1.00  0.00    -0.401 OA
HETATM    2  C1  UNL     1      -3.028   0.658   0.085  1.00  0.00     0.020 C 
HETATM    3  C2  UNL     1      -2.655  -0.781  -0.273  1.00  0.00    -0.030 C 
HETATM    4  C3  UNL     1      -1.372  -1.207   0.389  1.00  0.00    -0.104 C 
HETATM    5  C4  UNL     1      -0.186  -0.709   0.010  1.00  0.00    -0.104 C 
HETATM    6  C5  UNL     1       1.085  -1.159   0.680  1.00  0.00    -0.030 C 
HETATM    7  C6  UNL     1       2.311  -0.450   0.103  1.00  0.00     0.022 C 
HETATM    8  O2  UNL     1       2.227   0.934   0.371  1.00  0.00    -0.396 OA
HETATM    9  C7  UNL     1       3.348   1.585  -0.185  1.00  0.00     0.004 C 
HETATM   10  H1  UNL     1      -3.462   1.723   1.633  1.00  0.00     0.209 HD
HETATM   11  H2  UNL     1      -3.965   0.928  -0.451  1.00  0.00     0.074 H 
HETATM   12  H3  UNL     1      -2.223   1.354  -0.243  1.00  0.00     0.074 H 
HETATM   13  H4  UNL     1      -2.555  -0.878  -1.376  1.00  0.00     0.042 H 
HETATM   14  H5  UNL     1      -3.473  -1.458   0.054  1.00  0.00     0.042 H 
HETATM   15  H6  UNL     1      -1.416  -1.958   1.173  1.00  0.00     0.076 H 
HETATM   16  H7  UNL     1      -0.144   0.027  -0.789  1.00  0.00     0.076 H 
HETATM   17  H8  UNL     1       1.202  -2.255   0.537  1.00  0.00     0.042 H 
HETATM   18  H9  UNL     1       1.023  -0.952   1.770  1.00  0.00     0.042 H 
HETATM   19  H10 UNL     1       2.356  -0.647  -0.994  1.00  0.00     0.074 H 
HETATM   20  H11 UNL     1       3.216  -0.885   0.585  1.00  0.00     0.074 H 
HETATM   21  H12 UNL     1       3.275   2.669   0.042  1.00  0.00     0.066 H 
HETATM   22  H13 UNL     1       4.295   1.211   0.262  1.00  0.00     0.066 H 
HETATM   23  H14 UNL     1       3.369   1.475  -1.292  1.00  0.00     0.066 H 
TER      24      UNL     1 
ENDMDL
