REMARK FAKE_HEAD_ATOM=C6_O1
REMARK REAL_HEAD_ATOM=C5_C4
REMARK DUMMY_ATOM=C6_H14_H15_H16_O1
REMARK TORSION=H12_C5_C4_N1
REMARK TORSION=C5_C4_N1_C3
REMARK TORSION=C4_N1_C3_C2
REMARK TORSION=N1_C3_C2_C1
MODEL 0
HETATM    1  C1  UNL     1      -3.539  -0.449  -0.225  1.00  0.00    -0.075 C 
HETATM    2  C2  UNL     1      -2.640   0.734   0.134  1.00  0.00    -0.046 C 
HETATM    3  C3  UNL     1      -1.248   0.645  -0.515  1.00  0.00     0.081 C 
HETATM    4  N1  UNL     1      -0.438  -0.442   0.066  1.00  0.00    -0.073 N 
HETATM    5  C4  UNL     1       0.931  -0.467  -0.483  1.00  0.00     0.101 C 
HETATM    6  C5  UNL     1       1.858   0.549   0.204  1.00  0.00     0.041 C 
HETATM    7  O1  UNL     1       3.160   0.463  -0.345  1.00  0.00    -0.394 OA
HETATM    8  C6  UNL     1       3.994  -0.321   0.479  1.00  0.00     0.004 C 
HETATM    9  H1  UNL     1      -4.564  -0.263   0.159  1.00  0.00     0.027 H 
HETATM   10  H2  UNL     1      -3.163  -1.384   0.238  1.00  0.00     0.027 H 
HETATM   11  H3  UNL     1      -3.593  -0.575  -1.328  1.00  0.00     0.027 H 
HETATM   12  H4  UNL     1      -3.133   1.665  -0.219  1.00  0.00     0.034 H 
HETATM   13  H5  UNL     1      -2.542   0.804   1.239  1.00  0.00     0.034 H 
HETATM   14  H6  UNL     1      -0.747   1.623  -0.356  1.00  0.00     0.075 H 
HETATM   15  H7  UNL     1      -1.361   0.498  -1.613  1.00  0.00     0.075 H 
HETATM   16  H8  UNL     1      -0.406  -0.353   1.109  1.00  0.00     0.277 HD
HETATM   17  H9  UNL     1      -0.888  -1.357  -0.169  1.00  0.00     0.277 HD
HETATM   18  H10 UNL     1       0.920  -0.283  -1.582  1.00  0.00     0.079 H 
HETATM   19  H11 UNL     1       1.357  -1.483  -0.333  1.00  0.00     0.079 H 
HETATM   20  H12 UNL     1       1.831   0.411   1.312  1.00  0.00     0.076 H 
HETATM   21  H13 UNL     1       1.486   1.575   0.010  1.00  0.00     0.076 H 
HETATM   22  H14 UNL     1       3.569  -1.336   0.644  1.00  0.00     0.066 H 
HETATM   23  H15 UNL     1       4.175   0.186   1.452  1.00  0.00     0.066 H 
HETATM   24  H16 UNL     1       4.975  -0.445  -0.024  1.00  0.00     0.066 H 
TER      25      UNL     1 
ENDMDL
