REMARK FAKE_HEAD_ATOM=C4_O1
REMARK REAL_HEAD_ATOM=C3_C2
REMARK DUMMY_ATOM=C4_H7_H8_H9_O1
REMARK TORSION=H5_C3_C2_C1
REMARK TORSION=C3_C2_C1_CL1
MODEL 0
HETATM    1 CL1  UNL     1       2.990  -0.656   1.355  1.00  0.00    -0.130 Cl
HETATM    2  C1  UNL     1       2.119  -0.283  -0.157  1.00  0.00     0.004 C 
HETATM    3  C2  UNL     1       0.840   0.513   0.116  1.00  0.00    -0.034 C 
HETATM    4  C3  UNL     1      -0.233  -0.337   0.809  1.00  0.00     0.020 C 
HETATM    5  O1  UNL     1      -1.382   0.449   1.067  1.00  0.00    -0.396 OA
HETATM    6  C4  UNL     1      -2.352   0.251   0.062  1.00  0.00     0.004 C 
HETATM    7  H1  UNL     1       2.792   0.321  -0.802  1.00  0.00     0.056 H 
HETATM    8  H2  UNL     1       1.883  -1.228  -0.692  1.00  0.00     0.056 H 
HETATM    9  H3  UNL     1       1.080   1.398   0.744  1.00  0.00     0.037 H 
HETATM   10  H4  UNL     1       0.443   0.881  -0.853  1.00  0.00     0.037 H 
HETATM   11  H5  UNL     1      -0.446  -1.256   0.212  1.00  0.00     0.074 H 
HETATM   12  H6  UNL     1       0.160  -0.684   1.787  1.00  0.00     0.074 H 
HETATM   13  H7  UNL     1      -2.753  -0.786   0.102  1.00  0.00     0.066 H 
HETATM   14  H8  UNL     1      -1.945   0.471  -0.949  1.00  0.00     0.066 H 
HETATM   15  H9  UNL     1      -3.197   0.946   0.244  1.00  0.00     0.066 H 
TER      16      UNL     1 
ENDMDL
