REMARK FAKE_HEAD_ATOM=C3_O1
REMARK REAL_HEAD_ATOM=C2_C1
REMARK DUMMY_ATOM=C3_H3_H4_H5_O1
REMARK TORSION=H1_C2_C1_CL1
MODEL 0
HETATM    1 CL1  UNL     1      -1.958   1.801   0.721  1.00  0.00    -0.081 Cl
HETATM    2  C1  UNL     1      -1.731   0.093   0.260  1.00  0.00     0.209 C 
HETATM    3 CL2  UNL     1      -2.651  -0.928   1.395  1.00  0.00    -0.081 Cl
HETATM    4 CL3  UNL     1      -2.379  -0.158  -1.383  1.00  0.00    -0.081 Cl
HETATM    5  C2  UNL     1      -0.249  -0.283   0.313  1.00  0.00     0.065 C 
HETATM    6  O1  UNL     1       0.482   0.525  -0.586  1.00  0.00    -0.392 OA
HETATM    7  C3  UNL     1       1.846   0.172  -0.529  1.00  0.00     0.004 C 
HETATM    8  H1  UNL     1       0.114  -0.136   1.357  1.00  0.00     0.081 H 
HETATM    9  H2  UNL     1      -0.149  -1.359   0.043  1.00  0.00     0.081 H 
HETATM   10  H3  UNL     1       2.407   0.813  -1.239  1.00  0.00     0.066 H 
HETATM   11  H4  UNL     1       2.001  -0.886  -0.838  1.00  0.00     0.066 H 
HETATM   12  H5  UNL     1       2.266   0.347   0.486  1.00  0.00     0.066 H 
TER      13      UNL     1 
ENDMDL
