REMARK FAKE_HEAD_ATOM=C9_O5
REMARK REAL_HEAD_ATOM=C8_C7
REMARK DUMMY_ATOM=C9_H18_H19_H20_O5
REMARK TORSION=H16_C8_C7_O4
REMARK TORSION=C8_C7_O4_C6
REMARK TORSION=C7_O4_C6_C5
REMARK TORSION=O4_C6_C5_O3
REMARK TORSION=C6_C5_O3_C4
REMARK TORSION=C5_O3_C4_C3
REMARK TORSION=O3_C4_C3_O2
REMARK TORSION=C4_C3_O2_C2
REMARK TORSION=C3_O2_C2_C1
REMARK TORSION=O2_C2_C1_O1
REMARK TORSION=C2_C1_O1_H1
MODEL 0
HETATM    1  O1  UNL     1       6.486  -0.487  -0.834  1.00  0.00    -0.399 OA
HETATM    2  C1  UNL     1       5.306  -0.057  -1.457  1.00  0.00     0.036 C 
HETATM    3  C2  UNL     1       4.376   0.607  -0.445  1.00  0.00     0.039 C 
HETATM    4  O2  UNL     1       4.046  -0.320   0.568  1.00  0.00    -0.387 OA
HETATM    5  C3  UNL     1       3.117   0.241   1.478  1.00  0.00     0.039 C 
HETATM    6  C4  UNL     1       1.774  -0.472   1.354  1.00  0.00     0.039 C 
HETATM    7  O3  UNL     1       1.235  -0.238   0.069  1.00  0.00    -0.387 OA
HETATM    8  C5  UNL     1      -0.070  -0.777  -0.029  1.00  0.00     0.039 C 
HETATM    9  C6  UNL     1      -1.111   0.318   0.192  1.00  0.00     0.039 C 
HETATM   10  O4  UNL     1      -2.400  -0.226   0.003  1.00  0.00    -0.387 OA
HETATM   11  C7  UNL     1      -3.370   0.781   0.204  1.00  0.00     0.039 C 
HETATM   12  C8  UNL     1      -4.759   0.193  -0.009  1.00  0.00     0.039 C 
HETATM   13  O5  UNL     1      -4.874  -0.268  -1.339  1.00  0.00    -0.394 OA
HETATM   14  C9  UNL     1      -6.156  -0.820  -1.533  1.00  0.00     0.004 C 
HETATM   15  H1  UNL     1       7.041   0.323  -0.687  1.00  0.00     0.209 HD
HETATM   16  H2  UNL     1       4.794  -0.936  -1.903  1.00  0.00     0.077 H 
HETATM   17  H3  UNL     1       5.539   0.656  -2.281  1.00  0.00     0.077 H 
HETATM   18  H4  UNL     1       4.893   1.492  -0.010  1.00  0.00     0.077 H 
HETATM   19  H5  UNL     1       3.461   0.944  -0.985  1.00  0.00     0.077 H 
HETATM   20  H6  UNL     1       2.962   1.342   1.368  1.00  0.00     0.077 H 
HETATM   21  H7  UNL     1       3.503   0.078   2.507  1.00  0.00     0.077 H 
HETATM   22  H8  UNL     1       1.099  -0.080   2.148  1.00  0.00     0.077 H 
HETATM   23  H9  UNL     1       1.935  -1.562   1.514  1.00  0.00     0.077 H 
HETATM   24  H10 UNL     1      -0.197  -1.177  -1.058  1.00  0.00     0.077 H 
HETATM   25  H11 UNL     1      -0.259  -1.631   0.666  1.00  0.00     0.077 H 
HETATM   26  H12 UNL     1      -0.918   1.136  -0.539  1.00  0.00     0.077 H 
HETATM   27  H13 UNL     1      -0.999   0.712   1.227  1.00  0.00     0.077 H 
HETATM   28  H14 UNL     1      -3.316   1.176   1.244  1.00  0.00     0.077 H 
HETATM   29  H15 UNL     1      -3.228   1.620  -0.515  1.00  0.00     0.077 H 
HETATM   30  H16 UNL     1      -5.509   0.991   0.196  1.00  0.00     0.077 H 
HETATM   31  H17 UNL     1      -4.903  -0.642   0.715  1.00  0.00     0.077 H 
HETATM   32  H18 UNL     1      -6.952  -0.058  -1.376  1.00  0.00     0.066 H 
HETATM   33  H19 UNL     1      -6.234  -1.173  -2.582  1.00  0.00     0.066 H 
HETATM   34  H20 UNL     1      -6.322  -1.698  -0.869  1.00  0.00     0.066 H 
TER      35      UNL     1 
ENDMDL
