REMARK FAKE_HEAD_ATOM=C4_O2
REMARK REAL_HEAD_ATOM=C3_C2
REMARK DUMMY_ATOM=C4_H6_H7_H8_O2
REMARK TORSION=O3_C3_C2_C1
REMARK TORSION=C3_C2_C1_O1
REMARK TORSION=C2_C1_O1_H1
MODEL 0
HETATM    1  O1  UNL     1      -1.747  -0.494   1.204  1.00  0.00    -0.400 OA
HETATM    2  C1  UNL     1      -1.950   0.422   0.161  1.00  0.00     0.025 C 
HETATM    3  C2  UNL     1      -0.936   0.200  -0.964  1.00  0.00     0.035 C 
HETATM    4  C3  UNL     1       0.463   0.423  -0.481  1.00  0.00     0.260 C 
HETATM    5  O2  UNL     1       1.196  -0.655   0.024  1.00  0.00    -0.326 OA
HETATM    6  C4  UNL     1       2.520  -0.513   0.525  1.00  0.00     0.013 C 
HETATM    7  O3  UNL     1       0.954   1.585  -0.497  1.00  0.00    -0.265 OA
HETATM    8  H1  UNL     1      -2.093  -1.368   0.886  1.00  0.00     0.209 HD
HETATM    9  H2  UNL     1      -2.983   0.321  -0.243  1.00  0.00     0.074 H 
HETATM   10  H3  UNL     1      -1.845   1.453   0.561  1.00  0.00     0.074 H 
HETATM   11  H4  UNL     1      -1.155   0.903  -1.797  1.00  0.00     0.051 H 
HETATM   12  H5  UNL     1      -1.033  -0.834  -1.358  1.00  0.00     0.051 H 
HETATM   13  H6  UNL     1       3.190  -0.133  -0.275  1.00  0.00     0.067 H 
HETATM   14  H7  UNL     1       2.527   0.190   1.386  1.00  0.00     0.067 H 
HETATM   15  H8  UNL     1       2.889  -1.502   0.866  1.00  0.00     0.067 H 
TER      16      UNL     1 
ENDMDL
