REMARK FAKE_HEAD_ATOM=C3_O1
REMARK REAL_HEAD_ATOM=C2_C1
REMARK DUMMY_ATOM=C3_H6_H7_H8_O1
REMARK TORSION=O2_C2_C1_N1
MODEL 0
HETATM    1  N1  UNL     1      -2.038   0.343   0.068  1.00  0.00    -0.070 N 
HETATM    2  C1  UNL     1      -1.195  -0.601  -0.662  1.00  0.00     0.159 C 
HETATM    3  C2  UNL     1       0.212  -0.556  -0.153  1.00  0.00     0.284 C 
HETATM    4  O1  UNL     1       1.112   0.365  -0.697  1.00  0.00    -0.325 OA
HETATM    5  C3  UNL     1       2.455   0.482  -0.246  1.00  0.00     0.013 C 
HETATM    6  O2  UNL     1       0.562  -1.318   0.790  1.00  0.00    -0.263 OA
HETATM    7  H1  UNL     1      -3.012   0.294  -0.309  1.00  0.00     0.274 HD
HETATM    8  H2  UNL     1      -2.055   0.097   1.084  1.00  0.00     0.274 HD
HETATM    9  H3  UNL     1      -1.675   1.317  -0.055  1.00  0.00     0.274 HD
HETATM   10  H4  UNL     1      -1.601  -1.631  -0.549  1.00  0.00     0.091 H 
HETATM   11  H5  UNL     1      -1.200  -0.348  -1.745  1.00  0.00     0.091 H 
HETATM   12  H6  UNL     1       2.473   0.757   0.830  1.00  0.00     0.067 H 
HETATM   13  H7  UNL     1       2.992  -0.479  -0.396  1.00  0.00     0.067 H 
HETATM   14  H8  UNL     1       2.968   1.275  -0.828  1.00  0.00     0.067 H 
TER      15      UNL     1 
ENDMDL
