REMARK FAKE_HEAD_ATOM=C4_O1
REMARK REAL_HEAD_ATOM=C3_C2
REMARK DUMMY_ATOM=C4_H7_H8_H9_O1
REMARK TORSION=H5_C3_C2_C1
MODEL 0
HETATM    1  C1  UNL     1      -1.914  -0.934  -0.324  1.00  0.00    -0.071 C 
HETATM    2  C2  UNL     1      -0.908  -0.094   0.473  1.00  0.00    -0.041 C 
HETATM    3  C3  UNL     1       0.530  -0.408   0.027  1.00  0.00     0.022 C 
HETATM    4  O1  UNL     1       1.445   0.272   0.861  1.00  0.00    -0.396 OA
HETATM    5  C4  UNL     1       2.760   0.005   0.429  1.00  0.00     0.004 C 
HETATM    6  C5  UNL     1      -1.221   1.400   0.315  1.00  0.00    -0.071 C 
HETATM    7  H1  UNL     1      -1.845  -0.703  -1.409  1.00  0.00     0.028 H 
HETATM    8  H2  UNL     1      -2.948  -0.724   0.023  1.00  0.00     0.028 H 
HETATM    9  H3  UNL     1      -1.714  -2.016  -0.173  1.00  0.00     0.028 H 
HETATM   10  H4  UNL     1      -1.011  -0.361   1.548  1.00  0.00     0.042 H 
HETATM   11  H5  UNL     1       0.655  -0.099  -1.037  1.00  0.00     0.074 H 
HETATM   12  H6  UNL     1       0.691  -1.509   0.104  1.00  0.00     0.074 H 
HETATM   13  H7  UNL     1       2.929   0.383  -0.604  1.00  0.00     0.066 H 
HETATM   14  H8  UNL     1       3.467   0.536   1.100  1.00  0.00     0.066 H 
HETATM   15  H9  UNL     1       2.992  -1.082   0.488  1.00  0.00     0.066 H 
HETATM   16  H10 UNL     1      -0.529   2.009   0.935  1.00  0.00     0.028 H 
HETATM   17  H11 UNL     1      -2.258   1.612   0.653  1.00  0.00     0.028 H 
HETATM   18  H12 UNL     1      -1.121   1.713  -0.747  1.00  0.00     0.028 H 
TER      19      UNL     1 
ENDMDL
