REMARK FAKE_HEAD_ATOM=C1_O1
REMARK REAL_HEAD_ATOM=C2_C5
REMARK DUMMY_ATOM=C1_H1_H2_H3_O1
REMARK TORSION=C4_C2_C5_N1
MODEL 0
HETATM    1  C1  UNL     1       2.122   0.217   0.471  1.00  0.00     0.005 C 
HETATM    2  O1  UNL     1       1.080  -0.735   0.367  1.00  0.00    -0.384 OA
HETATM    3  C2  UNL     1      -0.049  -0.284  -0.383  1.00  0.00     0.076 C 
HETATM    4  C3  UNL     1      -0.931  -1.525  -0.623  1.00  0.00    -0.046 C 
HETATM    5  C4  UNL     1       0.346   0.269  -1.777  1.00  0.00    -0.046 C 
HETATM    6  C5  UNL     1      -0.874   0.790   0.392  1.00  0.00     0.107 C 
HETATM    7  N1  UNL     1      -1.112   0.429   1.793  1.00  0.00    -0.076 N 
HETATM    8  H1  UNL     1       1.763   1.222   0.769  1.00  0.00     0.066 H 
HETATM    9  H2  UNL     1       2.824  -0.122   1.261  1.00  0.00     0.066 H 
HETATM   10  H3  UNL     1       2.701   0.270  -0.475  1.00  0.00     0.066 H 
HETATM   11  H4  UNL     1      -1.175  -2.032   0.334  1.00  0.00     0.031 H 
HETATM   12  H5  UNL     1      -1.880  -1.253  -1.134  1.00  0.00     0.031 H 
HETATM   13  H6  UNL     1      -0.393  -2.264  -1.256  1.00  0.00     0.031 H 
HETATM   14  H7  UNL     1       1.006  -0.451  -2.306  1.00  0.00     0.031 H 
HETATM   15  H8  UNL     1      -0.559   0.442  -2.400  1.00  0.00     0.031 H 
HETATM   16  H9  UNL     1       0.877   1.241  -1.692  1.00  0.00     0.031 H 
HETATM   17  H10 UNL     1      -0.359   1.775   0.358  1.00  0.00     0.080 H 
HETATM   18  H11 UNL     1      -1.854   0.947  -0.114  1.00  0.00     0.080 H 
HETATM   19  H12 UNL     1      -1.615   1.216   2.263  1.00  0.00     0.274 HD
HETATM   20  H13 UNL     1      -0.208   0.271   2.293  1.00  0.00     0.274 HD
HETATM   21  H14 UNL     1      -1.711  -0.424   1.857  1.00  0.00     0.274 HD
TER      22      UNL     1 
ENDMDL
