REMARK FAKE_HEAD_ATOM=C1_O1
REMARK REAL_HEAD_ATOM=C2_C5
REMARK DUMMY_ATOM=C1_H1_H2_H3_O1
REMARK TORSION=C4_C2_C5_C6
MODEL 0
HETATM    1  C1  UNL     1       2.306   0.600  -0.054  1.00  0.00     0.005 C 
HETATM    2  O1  UNL     1       0.998   1.137  -0.091  1.00  0.00    -0.382 OA
HETATM    3  C2  UNL     1      -0.047   0.167   0.013  1.00  0.00     0.070 C 
HETATM    4  C3  UNL     1       0.154  -1.039  -0.943  1.00  0.00    -0.045 C 
HETATM    5  C4  UNL     1      -0.186  -0.312   1.476  1.00  0.00    -0.045 C 
HETATM    6  C5  UNL     1      -1.323   0.893  -0.387  1.00  0.00    -0.080 C 
HETATM    7  C6  UNL     1      -2.539   0.327  -0.391  1.00  0.00    -0.122 C 
HETATM    8  H1  UNL     1       2.454  -0.135   0.762  1.00  0.00     0.066 H 
HETATM    9  H2  UNL     1       3.018   1.431   0.128  1.00  0.00     0.066 H 
HETATM   10  H3  UNL     1       2.573   0.154  -1.035  1.00  0.00     0.066 H 
HETATM   11  H4  UNL     1       0.314  -0.681  -1.983  1.00  0.00     0.032 H 
HETATM   12  H5  UNL     1      -0.728  -1.713  -0.935  1.00  0.00     0.032 H 
HETATM   13  H6  UNL     1       1.025  -1.656  -0.639  1.00  0.00     0.032 H 
HETATM   14  H7  UNL     1      -0.266   0.562   2.158  1.00  0.00     0.032 H 
HETATM   15  H8  UNL     1      -1.087  -0.946   1.610  1.00  0.00     0.032 H 
HETATM   16  H9  UNL     1       0.680  -0.926   1.793  1.00  0.00     0.032 H 
HETATM   17  H10 UNL     1      -1.254   1.935  -0.689  1.00  0.00     0.080 H 
HETATM   18  H11 UNL     1      -3.404   0.910  -0.689  1.00  0.00     0.066 H 
HETATM   19  H12 UNL     1      -2.688  -0.707  -0.103  1.00  0.00     0.066 H 
TER      20      UNL     1 
ENDMDL
