REMARK FAKE_HEAD_ATOM=C8_O2
REMARK REAL_HEAD_ATOM=C7_C6
REMARK DUMMY_ATOM=C8_H16_H17_H18_O2
REMARK TORSION=C7_C6_C5_C4
REMARK TORSION=C6_C5_C4_C3
REMARK TORSION=C5_C4_C3_C2
REMARK TORSION=C4_C3_C2_C1
REMARK TORSION=C3_C2_C1_O1
REMARK TORSION=C2_C1_O1_H1
MODEL 0
HETATM    1  O1  UNL     1      -4.319   0.294  -0.084  1.00  0.00    -0.401 OA
HETATM    2  C1  UNL     1      -3.390   0.022   0.929  1.00  0.00     0.017 C 
HETATM    3  C2  UNL     1      -2.643  -1.281   0.629  1.00  0.00    -0.045 C 
HETATM    4  C3  UNL     1      -1.926  -1.291  -0.735  1.00  0.00    -0.063 C 
HETATM    5  C4  UNL     1      -0.858  -0.199  -0.917  1.00  0.00    -0.065 C 
HETATM    6  C5  UNL     1       0.295  -0.315   0.091  1.00  0.00    -0.063 C 
HETATM    7  C6  UNL     1       1.417   0.677  -0.240  1.00  0.00    -0.045 C 
HETATM    8  C7  UNL     1       2.562   0.577   0.773  1.00  0.00     0.019 C 
HETATM    9  O2  UNL     1       3.548   1.552   0.490  1.00  0.00    -0.396 OA
HETATM   10  C8  UNL     1       4.600   0.987  -0.261  1.00  0.00     0.004 C 
HETATM   11  H1  UNL     1      -4.756   1.150   0.166  1.00  0.00     0.209 HD
HETATM   12  H2  UNL     1      -2.671   0.865   1.030  1.00  0.00     0.073 H 
HETATM   13  H3  UNL     1      -3.923  -0.090   1.899  1.00  0.00     0.073 H 
HETATM   14  H4  UNL     1      -3.377  -2.116   0.641  1.00  0.00     0.036 H 
HETATM   15  H5  UNL     1      -1.917  -1.485   1.444  1.00  0.00     0.036 H 
HETATM   16  H6  UNL     1      -2.683  -1.184  -1.543  1.00  0.00     0.033 H 
HETATM   17  H7  UNL     1      -1.449  -2.286  -0.875  1.00  0.00     0.033 H 
HETATM   18  H8  UNL     1      -0.447  -0.300  -1.946  1.00  0.00     0.033 H 
HETATM   19  H9  UNL     1      -1.321   0.809  -0.851  1.00  0.00     0.033 H 
HETATM   20  H10 UNL     1      -0.082  -0.100   1.113  1.00  0.00     0.033 H 
HETATM   21  H11 UNL     1       0.702  -1.350   0.070  1.00  0.00     0.033 H 
HETATM   22  H12 UNL     1       1.012   1.713  -0.228  1.00  0.00     0.036 H 
HETATM   23  H13 UNL     1       1.808   0.465  -1.259  1.00  0.00     0.036 H 
HETATM   24  H14 UNL     1       2.961  -0.465   0.807  1.00  0.00     0.074 H 
HETATM   25  H15 UNL     1       2.158   0.791   1.785  1.00  0.00     0.074 H 
HETATM   26  H16 UNL     1       5.308   1.793  -0.543  1.00  0.00     0.066 H 
HETATM   27  H17 UNL     1       4.227   0.522  -1.201  1.00  0.00     0.066 H 
HETATM   28  H18 UNL     1       5.161   0.241   0.344  1.00  0.00     0.066 H 
TER      29      UNL     1 
ENDMDL
