REMARK FAKE_HEAD_ATOM=C5_O1
REMARK REAL_HEAD_ATOM=C2_C3
REMARK DUMMY_ATOM=C5_H10_H11_H12_O1
REMARK TORSION=H4_C2_C3_S1
REMARK TORSION=C2_C3_S1_H6
MODEL 0
HETATM    1  C1  UNL     1       0.705  -1.270   0.985  1.00  0.00    -0.051 C 
HETATM    2  C2  UNL     1       0.209   0.062   0.408  1.00  0.00     0.046 C 
HETATM    3  C3  UNL     1      -1.299   0.011   0.064  1.00  0.00     0.009 C 
HETATM    4  S1  UNL     1      -1.882   1.674  -0.412  1.00  0.00    -0.175 SA
HETATM    5  C4  UNL     1      -1.628  -0.974  -1.065  1.00  0.00    -0.062 C 
HETATM    6  O1  UNL     1       0.952   0.380  -0.759  1.00  0.00    -0.390 OA
HETATM    7  C5  UNL     1       1.996   1.281  -0.459  1.00  0.00     0.004 C 
HETATM    8  H1  UNL     1       0.049  -1.603   1.818  1.00  0.00     0.030 H 
HETATM    9  H2  UNL     1       0.734  -2.056   0.202  1.00  0.00     0.030 H 
HETATM   10  H3  UNL     1       1.734  -1.147   1.385  1.00  0.00     0.030 H 
HETATM   11  H4  UNL     1       0.319   0.825   1.217  1.00  0.00     0.084 H 
HETATM   12  H5  UNL     1      -1.869  -0.295   0.969  1.00  0.00     0.059 H 
HETATM   13  H6  UNL     1      -1.709   2.200   0.883  1.00  0.00     0.102 HD
HETATM   14  H7  UNL     1      -2.714  -0.928  -1.297  1.00  0.00     0.029 H 
HETATM   15  H8  UNL     1      -1.397  -2.015  -0.759  1.00  0.00     0.029 H 
HETATM   16  H9  UNL     1      -1.060  -0.727  -1.986  1.00  0.00     0.029 H 
HETATM   17  H10 UNL     1       1.587   2.267  -0.145  1.00  0.00     0.066 H 
HETATM   18  H11 UNL     1       2.672   0.873   0.324  1.00  0.00     0.066 H 
HETATM   19  H12 UNL     1       2.599   1.442  -1.376  1.00  0.00     0.066 H 
TER      20      UNL     1 
ENDMDL
