REMARK FAKE_HEAD_ATOM=C5_O1
REMARK REAL_HEAD_ATOM=C4_C2
REMARK DUMMY_ATOM=C5_H10_H11_H9_O1
REMARK TORSION=H7_C4_C2_C1
MODEL 0
HETATM    1  C1  UNL     1      -1.480   0.592   1.367  1.00  0.00    -0.068 C 
HETATM    2  C2  UNL     1      -0.740   0.105   0.105  1.00  0.00    -0.030 C 
HETATM    3  C3  UNL     1      -1.251  -1.302  -0.266  1.00  0.00    -0.068 C 
HETATM    4  C4  UNL     1       0.780   0.058   0.395  1.00  0.00     0.025 C 
HETATM    5  O1  UNL     1       1.486  -0.387  -0.746  1.00  0.00    -0.395 OA
HETATM    6  C5  UNL     1       2.866  -0.423  -0.461  1.00  0.00     0.004 C 
HETATM    7  C6  UNL     1      -1.027   1.079  -1.055  1.00  0.00    -0.068 C 
HETATM    8  H1  UNL     1      -2.576   0.636   1.187  1.00  0.00     0.028 H 
HETATM    9  H2  UNL     1      -1.295  -0.095   2.221  1.00  0.00     0.028 H 
HETATM   10  H3  UNL     1      -1.135   1.608   1.656  1.00  0.00     0.028 H 
HETATM   11  H4  UNL     1      -2.348  -1.285  -0.444  1.00  0.00     0.028 H 
HETATM   12  H5  UNL     1      -0.758  -1.672  -1.190  1.00  0.00     0.028 H 
HETATM   13  H6  UNL     1      -1.043  -2.023   0.554  1.00  0.00     0.028 H 
HETATM   14  H7  UNL     1       0.960  -0.631   1.254  1.00  0.00     0.075 H 
HETATM   15  H8  UNL     1       1.121   1.078   0.688  1.00  0.00     0.075 H 
HETATM   16  H9  UNL     1       3.089  -1.138   0.361  1.00  0.00     0.066 H 
HETATM   17  H10 UNL     1       3.252   0.591  -0.211  1.00  0.00     0.066 H 
HETATM   18  H11 UNL     1       3.405  -0.773  -1.365  1.00  0.00     0.066 H 
HETATM   19  H12 UNL     1      -0.655   2.098  -0.811  1.00  0.00     0.028 H 
HETATM   20  H13 UNL     1      -0.531   0.740  -1.989  1.00  0.00     0.028 H 
HETATM   21  H14 UNL     1      -2.120   1.145  -1.249  1.00  0.00     0.028 H 
TER      22      UNL     1 
ENDMDL
