REMARK FAKE_HEAD_ATOM=C1_O1
REMARK REAL_HEAD_ATOM=C2_C3
REMARK DUMMY_ATOM=C1_H1_H2_H3_O1
REMARK TORSION=H4_C2_C3_S1
REMARK TORSION=C2_C3_S1_H8
MODEL 0
HETATM    1  C1  UNL     1      -1.881  -0.458   0.072  1.00  0.00     0.004 C 
HETATM    2  O1  UNL     1      -0.722  -0.511  -0.730  1.00  0.00    -0.395 OA
HETATM    3  C2  UNL     1       0.135   0.577  -0.434  1.00  0.00     0.026 C 
HETATM    4  C3  UNL     1       1.215   0.160   0.566  1.00  0.00    -0.006 C 
HETATM    5  S1  UNL     1       2.224  -1.208  -0.089  1.00  0.00    -0.180 SA
HETATM    6  H1  UNL     1      -1.629  -0.443   1.156  1.00  0.00     0.066 H 
HETATM    7  H2  UNL     1      -2.486  -1.368  -0.119  1.00  0.00     0.066 H 
HETATM    8  H3  UNL     1      -2.504   0.424  -0.193  1.00  0.00     0.066 H 
HETATM    9  H4  UNL     1       0.629   0.894  -1.377  1.00  0.00     0.075 H 
HETATM   10  H5  UNL     1      -0.402   1.478  -0.051  1.00  0.00     0.075 H 
HETATM   11  H6  UNL     1       1.878   1.026   0.779  1.00  0.00     0.051 H 
HETATM   12  H7  UNL     1       0.748  -0.162   1.520  1.00  0.00     0.051 H 
HETATM   13  H8  UNL     1       2.794  -0.410  -1.100  1.00  0.00     0.101 HD
TER      14      UNL     1 
ENDMDL
