REMARK FAKE_HEAD_ATOM=C1_O1
REMARK REAL_HEAD_ATOM=C2_C3
REMARK DUMMY_ATOM=C1_H1_H2_H3_O1
REMARK TORSION=H4_C2_C3_C1
REMARK TORSION=C2_C3_C4_N1
REMARK TORSION=C2_C3_O2_H12
MODEL 0
HETATM    1  C1  UNL     1       2.750   0.998  -0.768  1.00  0.00     0.004 C 
HETATM    2  O1  UNL     1       1.936  -0.128  -0.529  1.00  0.00    -0.393 OA
HETATM    3  C2  UNL     1       0.655   0.299  -0.113  1.00  0.00     0.044 C 
HETATM    4  C3  UNL     1      -0.221  -0.933   0.172  1.00  0.00     0.079 C 
HETATM    5  C4  UNL     1      -1.612  -0.556   0.729  1.00  0.00     0.105 C 
HETATM    6  N1  UNL     1      -2.439   0.134  -0.264  1.00  0.00    -0.077 N 
HETATM    7  O2  UNL     1       0.433  -1.799   1.067  1.00  0.00    -0.392 OA
HETATM    8  H1  UNL     1       3.749   0.648  -1.100  1.00  0.00     0.066 H 
HETATM    9  H2  UNL     1       2.895   1.595   0.160  1.00  0.00     0.066 H 
HETATM   10  H3  UNL     1       2.331   1.636  -1.578  1.00  0.00     0.066 H 
HETATM   11  H4  UNL     1       0.177   0.902  -0.916  1.00  0.00     0.078 H 
HETATM   12  H5  UNL     1       0.727   0.912   0.815  1.00  0.00     0.078 H 
HETATM   13  H6  UNL     1      -0.361  -1.486  -0.782  1.00  0.00     0.088 H 
HETATM   14  H7  UNL     1      -2.132  -1.490   1.041  1.00  0.00     0.079 H 
HETATM   15  H8  UNL     1      -1.502   0.083   1.633  1.00  0.00     0.079 H 
HETATM   16  H9  UNL     1      -2.068   1.095  -0.442  1.00  0.00     0.274 HD
HETATM   17  H10 UNL     1      -2.470  -0.409  -1.156  1.00  0.00     0.274 HD
HETATM   18  H11 UNL     1      -3.412   0.223   0.108  1.00  0.00     0.274 HD
HETATM   19  H12 UNL     1       0.562  -1.307   1.920  1.00  0.00     0.210 HD
TER      20      UNL     1 
ENDMDL
