REMARK FAKE_HEAD_ATOM=C21_O11
REMARK REAL_HEAD_ATOM=C20_C19
REMARK DUMMY_ATOM=C21_H42_H43_H44_O11
REMARK TORSION=H40_C20_C19_O10
REMARK TORSION=C20_C19_O10_C18
REMARK TORSION=C19_O10_C18_C17
REMARK TORSION=O10_C18_C17_O9
REMARK TORSION=C18_C17_O9_C16
REMARK TORSION=C17_O9_C16_C15
REMARK TORSION=O9_C16_C15_O8
REMARK TORSION=C16_C15_O8_C14
REMARK TORSION=C15_O8_C14_C13
REMARK TORSION=O8_C14_C13_O7
REMARK TORSION=C14_C13_O7_C12
REMARK TORSION=C13_O7_C12_C11
REMARK TORSION=O7_C12_C11_O6
REMARK TORSION=C12_C11_O6_C10
REMARK TORSION=C11_O6_C10_C9
REMARK TORSION=O6_C10_C9_O5
REMARK TORSION=C10_C9_O5_C8
REMARK TORSION=C9_O5_C8_C7
REMARK TORSION=O5_C8_C7_O4
REMARK TORSION=C8_C7_O4_C6
REMARK TORSION=C7_O4_C6_C5
REMARK TORSION=O4_C6_C5_O3
REMARK TORSION=C6_C5_O3_C4
REMARK TORSION=C5_O3_C4_C3
REMARK TORSION=O3_C4_C3_O2
REMARK TORSION=C4_C3_O2_C2
REMARK TORSION=C3_O2_C2_C1
REMARK TORSION=O2_C2_C1_O1
REMARK TORSION=C2_C1_O1_H1
MODEL 0
HETATM    1  O1  UNL     1      10.280  -4.528  -2.734  1.00  0.00    -0.399 OA
HETATM    2  C1  UNL     1       9.518  -3.667  -1.936  1.00  0.00     0.036 C 
HETATM    3  C2  UNL     1       8.041  -4.038  -2.049  1.00  0.00     0.039 C 
HETATM    4  O2  UNL     1       7.267  -3.232  -1.181  1.00  0.00    -0.387 OA
HETATM    5  C3  UNL     1       6.713  -2.137  -1.882  1.00  0.00     0.039 C 
HETATM    6  C4  UNL     1       6.048  -1.185  -0.890  1.00  0.00     0.039 C 
HETATM    7  O3  UNL     1       6.984  -0.743   0.077  1.00  0.00    -0.387 OA
HETATM    8  C5  UNL     1       7.579   0.485  -0.302  1.00  0.00     0.039 C 
HETATM    9  C6  UNL     1       6.788   1.671   0.255  1.00  0.00     0.039 C 
HETATM   10  O4  UNL     1       6.772   1.630   1.672  1.00  0.00    -0.387 OA
HETATM   11  C7  UNL     1       5.524   1.181   2.164  1.00  0.00     0.039 C 
HETATM   12  C8  UNL     1       4.566   2.360   2.357  1.00  0.00     0.039 C 
HETATM   13  O5  UNL     1       3.349   1.917   2.928  1.00  0.00    -0.387 OA
HETATM   14  C9  UNL     1       2.398   1.593   1.928  1.00  0.00     0.039 C 
HETATM   15  C10 UNL     1       1.490   2.791   1.640  1.00  0.00     0.039 C 
HETATM   16  O6  UNL     1       0.894   3.264   2.834  1.00  0.00    -0.387 OA
HETATM   17  C11 UNL     1      -0.374   2.671   3.050  1.00  0.00     0.039 C 
HETATM   18  C12 UNL     1      -1.479   3.559   2.484  1.00  0.00     0.039 C 
HETATM   19  O7  UNL     1      -2.733   2.977   2.774  1.00  0.00    -0.387 OA
HETATM   20  C13 UNL     1      -3.775   3.698   2.142  1.00  0.00     0.039 C 
HETATM   21  C14 UNL     1      -4.148   3.046   0.808  1.00  0.00     0.039 C 
HETATM   22  O8  UNL     1      -4.397   1.663   0.983  1.00  0.00    -0.387 OA
HETATM   23  C15 UNL     1      -5.781   1.421   1.128  1.00  0.00     0.039 C 
HETATM   24  C16 UNL     1      -6.005  -0.049   1.456  1.00  0.00     0.039 C 
HETATM   25  O9  UNL     1      -5.511  -0.846   0.399  1.00  0.00    -0.387 OA
HETATM   26  C17 UNL     1      -5.830  -2.209   0.612  1.00  0.00     0.039 C 
HETATM   27  C18 UNL     1      -7.092  -2.590  -0.158  1.00  0.00     0.039 C 
HETATM   28  O10 UNL     1      -6.905  -2.312  -1.530  1.00  0.00    -0.387 OA
HETATM   29  C19 UNL     1      -8.079  -2.640  -2.242  1.00  0.00     0.039 C 
HETATM   30  C20 UNL     1      -7.862  -2.347  -3.724  1.00  0.00     0.039 C 
HETATM   31  O11 UNL     1      -8.994  -2.747  -4.474  1.00  0.00    -0.394 OA
HETATM   32  C21 UNL     1      -9.832  -1.642  -4.729  1.00  0.00     0.004 C 
HETATM   33  H1  UNL     1      11.225  -4.246  -2.619  1.00  0.00     0.209 HD
HETATM   34  H2  UNL     1       9.838  -3.758  -0.873  1.00  0.00     0.077 H 
HETATM   35  H3  UNL     1       9.667  -2.617  -2.270  1.00  0.00     0.077 H 
HETATM   36  H4  UNL     1       7.921  -5.095  -1.730  1.00  0.00     0.077 H 
HETATM   37  H5  UNL     1       7.713  -3.991  -3.116  1.00  0.00     0.077 H 
HETATM   38  H6  UNL     1       7.492  -1.578  -2.447  1.00  0.00     0.077 H 
HETATM   39  H7  UNL     1       5.937  -2.496  -2.595  1.00  0.00     0.077 H 
HETATM   40  H8  UNL     1       5.243  -1.737  -0.360  1.00  0.00     0.077 H 
HETATM   41  H9  UNL     1       5.547  -0.352  -1.436  1.00  0.00     0.077 H 
HETATM   42  H10 UNL     1       7.701   0.591  -1.405  1.00  0.00     0.077 H 
HETATM   43  H11 UNL     1       8.603   0.515   0.126  1.00  0.00     0.077 H 
HETATM   44  H12 UNL     1       5.777   1.719  -0.213  1.00  0.00     0.077 H 
HETATM   45  H13 UNL     1       7.309   2.603  -0.051  1.00  0.00     0.077 H 
HETATM   46  H14 UNL     1       5.698   0.709   3.155  1.00  0.00     0.077 H 
HETATM   47  H15 UNL     1       5.063   0.393   1.524  1.00  0.00     0.077 H 
HETATM   48  H16 UNL     1       4.424   2.918   1.403  1.00  0.00     0.077 H 
HETATM   49  H17 UNL     1       5.034   3.075   3.067  1.00  0.00     0.077 H 
HETATM   50  H18 UNL     1       1.776   0.755   2.306  1.00  0.00     0.077 H 
HETATM   51  H19 UNL     1       2.859   1.229   0.979  1.00  0.00     0.077 H 
HETATM   52  H20 UNL     1       0.749   2.526   0.850  1.00  0.00     0.077 H 
HETATM   53  H21 UNL     1       2.106   3.612   1.216  1.00  0.00     0.077 H 
HETATM   54  H22 UNL     1      -0.525   2.582   4.147  1.00  0.00     0.077 H 
HETATM   55  H23 UNL     1      -0.457   1.639   2.637  1.00  0.00     0.077 H 
HETATM   56  H24 UNL     1      -1.328   3.659   1.385  1.00  0.00     0.077 H 
HETATM   57  H25 UNL     1      -1.403   4.564   2.959  1.00  0.00     0.077 H 
HETATM   58  H26 UNL     1      -3.539   4.777   1.983  1.00  0.00     0.077 H 
HETATM   59  H27 UNL     1      -4.661   3.674   2.810  1.00  0.00     0.077 H 
HETATM   60  H28 UNL     1      -4.999   3.599   0.342  1.00  0.00     0.077 H 
HETATM   61  H29 UNL     1      -3.294   3.154   0.107  1.00  0.00     0.077 H 
HETATM   62  H30 UNL     1      -6.210   2.030   1.956  1.00  0.00     0.077 H 
HETATM   63  H31 UNL     1      -6.318   1.658   0.182  1.00  0.00     0.077 H 
HETATM   64  H32 UNL     1      -7.098  -0.209   1.603  1.00  0.00     0.077 H 
HETATM   65  H33 UNL     1      -5.469  -0.287   2.403  1.00  0.00     0.077 H 
HETATM   66  H34 UNL     1      -4.987  -2.822   0.227  1.00  0.00     0.077 H 
HETATM   67  H35 UNL     1      -5.945  -2.480   1.689  1.00  0.00     0.077 H 
HETATM   68  H36 UNL     1      -7.279  -3.677  -0.001  1.00  0.00     0.077 H 
HETATM   69  H37 UNL     1      -7.950  -2.011   0.253  1.00  0.00     0.077 H 
HETATM   70  H38 UNL     1      -8.939  -2.031  -1.881  1.00  0.00     0.077 H 
HETATM   71  H39 UNL     1      -8.319  -3.722  -2.129  1.00  0.00     0.077 H 
HETATM   72  H40 UNL     1      -6.994  -2.946  -4.074  1.00  0.00     0.077 H 
HETATM   73  H41 UNL     1      -7.583  -1.275  -3.866  1.00  0.00     0.077 H 
HETATM   74  H42 UNL     1     -10.146  -1.141  -3.787  1.00  0.00     0.066 H 
HETATM   75  H43 UNL     1      -9.332  -0.915  -5.407  1.00  0.00     0.066 H 
HETATM   76  H44 UNL     1     -10.748  -2.002  -5.239  1.00  0.00     0.066 H 
TER      77      UNL     1 
ENDMDL
