REMARK FAKE_HEAD_ATOM=C5_O1
REMARK REAL_HEAD_ATOM=C3_C2
REMARK DUMMY_ATOM=C5_H10_H8_H9_O1
REMARK TORSION=C6_C3_C2_C1
MODEL 0
HETATM    1  C1  UNL     1       1.326   0.132   1.840  1.00  0.00    -0.070 C 
HETATM    2  C2  UNL     1       1.205  -0.107   0.321  1.00  0.00    -0.032 C 
HETATM    3  C3  UNL     1      -0.291  -0.183  -0.158  1.00  0.00     0.056 C 
HETATM    4  C4  UNL     1      -1.005  -1.339   0.596  1.00  0.00    -0.048 C 
HETATM    5  O1  UNL     1      -0.895   1.077   0.147  1.00  0.00    -0.385 OA
HETATM    6  C5  UNL     1      -2.210   1.228  -0.352  1.00  0.00     0.005 C 
HETATM    7  C6  UNL     1      -0.319  -0.496  -1.681  1.00  0.00    -0.048 C 
HETATM    8  C7  UNL     1       2.006   0.985  -0.418  1.00  0.00    -0.070 C 
HETATM    9  H1  UNL     1       2.393   0.231   2.133  1.00  0.00     0.028 H 
HETATM   10  H2  UNL     1       0.791   1.058   2.140  1.00  0.00     0.028 H 
HETATM   11  H3  UNL     1       0.918  -0.726   2.412  1.00  0.00     0.028 H 
HETATM   12  H4  UNL     1       1.704  -1.078   0.104  1.00  0.00     0.043 H 
HETATM   13  H5  UNL     1      -1.254  -1.035   1.634  1.00  0.00     0.031 H 
HETATM   14  H6  UNL     1      -1.952  -1.634   0.098  1.00  0.00     0.031 H 
HETATM   15  H7  UNL     1      -0.362  -2.245   0.629  1.00  0.00     0.031 H 
HETATM   16  H8  UNL     1      -2.211   1.346  -1.455  1.00  0.00     0.066 H 
HETATM   17  H9  UNL     1      -2.886   0.407  -0.038  1.00  0.00     0.066 H 
HETATM   18  H10 UNL     1      -2.633   2.164   0.068  1.00  0.00     0.066 H 
HETATM   19  H11 UNL     1      -0.022   0.394  -2.273  1.00  0.00     0.031 H 
HETATM   20  H12 UNL     1      -1.336  -0.794  -2.016  1.00  0.00     0.031 H 
HETATM   21  H13 UNL     1       0.367  -1.336  -1.923  1.00  0.00     0.031 H 
HETATM   22  H14 UNL     1       2.112   0.740  -1.494  1.00  0.00     0.028 H 
HETATM   23  H15 UNL     1       1.515   1.976  -0.314  1.00  0.00     0.028 H 
HETATM   24  H16 UNL     1       3.035   1.057  -0.006  1.00  0.00     0.028 H 
TER      25      UNL     1 
ENDMDL
