REMARK FAKE_HEAD_ATOM=C20_O1
REMARK REAL_HEAD_ATOM=C19_C18
REMARK DUMMY_ATOM=C20_H40_H41_H42_O1
REMARK TORSION=H38_C19_C18_C17
REMARK TORSION=C19_C18_C17_C16
REMARK TORSION=C18_C17_C16_C15
REMARK TORSION=C17_C16_C15_C14
REMARK TORSION=C16_C15_C14_C13
REMARK TORSION=C15_C14_C13_C12
REMARK TORSION=C14_C13_C12_C11
REMARK TORSION=C13_C12_C11_C10
REMARK TORSION=C12_C11_C10_C9
REMARK TORSION=C11_C10_C9_C8
REMARK TORSION=C10_C9_C8_C7
REMARK TORSION=C9_C8_C7_C6
REMARK TORSION=C8_C7_C6_C5
REMARK TORSION=C7_C6_C5_C4
REMARK TORSION=C6_C5_C4_C3
REMARK TORSION=C5_C4_C3_C2
REMARK TORSION=C4_C3_C2_C1
MODEL 0
HETATM    1  C1  UNL     1     -10.852  -0.383  -0.100  1.00  0.00    -0.077 C 
HETATM    2  C2  UNL     1      -9.428  -0.540   0.427  1.00  0.00    -0.069 C 
HETATM    3  C3  UNL     1      -8.460   0.399  -0.308  1.00  0.00    -0.065 C 
HETATM    4  C4  UNL     1      -7.041   0.368   0.282  1.00  0.00    -0.065 C 
HETATM    5  C5  UNL     1      -6.283  -0.924  -0.070  1.00  0.00    -0.065 C 
HETATM    6  C6  UNL     1      -4.865  -0.957   0.524  1.00  0.00    -0.065 C 
HETATM    7  C7  UNL     1      -3.894  -0.015  -0.204  1.00  0.00    -0.065 C 
HETATM    8  C8  UNL     1      -2.466  -0.179   0.331  1.00  0.00    -0.065 C 
HETATM    9  C9  UNL     1      -1.497   0.768  -0.387  1.00  0.00    -0.065 C 
HETATM   10  C10 UNL     1      -0.069   0.602   0.147  1.00  0.00    -0.065 C 
HETATM   11  C11 UNL     1       0.899   1.559  -0.565  1.00  0.00    -0.065 C 
HETATM   12  C12 UNL     1       2.362   1.335  -0.151  1.00  0.00    -0.065 C 
HETATM   13  C13 UNL     1       2.637   1.755   1.302  1.00  0.00    -0.065 C 
HETATM   14  C14 UNL     1       4.138   1.808   1.635  1.00  0.00    -0.065 C 
HETATM   15  C15 UNL     1       4.824   0.426   1.616  1.00  0.00    -0.065 C 
HETATM   16  C16 UNL     1       5.630   0.192   0.329  1.00  0.00    -0.065 C 
HETATM   17  C17 UNL     1       6.277  -1.200   0.331  1.00  0.00    -0.063 C 
HETATM   18  C18 UNL     1       6.975  -1.533  -0.999  1.00  0.00    -0.045 C 
HETATM   19  C19 UNL     1       8.209  -0.664  -1.287  1.00  0.00     0.019 C 
HETATM   20  O1  UNL     1       9.114  -0.678  -0.197  1.00  0.00    -0.396 OA
HETATM   21  C20 UNL     1      10.093  -1.677  -0.383  1.00  0.00     0.004 C 
HETATM   22  H1  UNL     1     -10.891  -0.621  -1.184  1.00  0.00     0.027 H 
HETATM   23  H2  UNL     1     -11.211   0.656   0.061  1.00  0.00     0.027 H 
HETATM   24  H3  UNL     1     -11.528  -1.078   0.442  1.00  0.00     0.027 H 
HETATM   25  H4  UNL     1      -9.422  -0.312   1.515  1.00  0.00     0.032 H 
HETATM   26  H5  UNL     1      -9.119  -1.597   0.286  1.00  0.00     0.032 H 
HETATM   27  H6  UNL     1      -8.426   0.138  -1.389  1.00  0.00     0.033 H 
HETATM   28  H7  UNL     1      -8.843   1.440  -0.226  1.00  0.00     0.033 H 
HETATM   29  H8  UNL     1      -7.089   0.494   1.386  1.00  0.00     0.033 H 
HETATM   30  H9  UNL     1      -6.490   1.239  -0.132  1.00  0.00     0.033 H 
HETATM   31  H10 UNL     1      -6.232  -1.047  -1.174  1.00  0.00     0.033 H 
HETATM   32  H11 UNL     1      -6.836  -1.794   0.340  1.00  0.00     0.033 H 
HETATM   33  H12 UNL     1      -4.483  -1.998   0.438  1.00  0.00     0.033 H 
HETATM   34  H13 UNL     1      -4.903  -0.701   1.605  1.00  0.00     0.033 H 
HETATM   35  H14 UNL     1      -3.905  -0.241  -1.293  1.00  0.00     0.033 H 
HETATM   36  H15 UNL     1      -4.212   1.039  -0.058  1.00  0.00     0.033 H 
HETATM   37  H16 UNL     1      -2.134  -1.230   0.177  1.00  0.00     0.033 H 
HETATM   38  H17 UNL     1      -2.456   0.040   1.421  1.00  0.00     0.033 H 
HETATM   39  H18 UNL     1      -1.827   1.819  -0.232  1.00  0.00     0.033 H 
HETATM   40  H19 UNL     1      -1.510   0.550  -1.477  1.00  0.00     0.033 H 
HETATM   41  H20 UNL     1      -0.067   0.812   1.238  1.00  0.00     0.033 H 
HETATM   42  H21 UNL     1       0.263  -0.447  -0.014  1.00  0.00     0.033 H 
HETATM   43  H22 UNL     1       0.825   1.395  -1.662  1.00  0.00     0.033 H 
HETATM   44  H23 UNL     1       0.607   2.613  -0.362  1.00  0.00     0.033 H 
HETATM   45  H24 UNL     1       3.005   1.937  -0.830  1.00  0.00     0.033 H 
HETATM   46  H25 UNL     1       2.621   0.264  -0.292  1.00  0.00     0.033 H 
HETATM   47  H26 UNL     1       2.133   1.056   2.003  1.00  0.00     0.033 H 
HETATM   48  H27 UNL     1       2.213   2.769   1.474  1.00  0.00     0.033 H 
HETATM   49  H28 UNL     1       4.652   2.525   0.956  1.00  0.00     0.033 H 
HETATM   50  H29 UNL     1       4.233   2.228   2.660  1.00  0.00     0.033 H 
HETATM   51  H30 UNL     1       5.525   0.368   2.478  1.00  0.00     0.033 H 
HETATM   52  H31 UNL     1       4.075  -0.385   1.751  1.00  0.00     0.033 H 
HETATM   53  H32 UNL     1       6.421   0.969   0.261  1.00  0.00     0.033 H 
HETATM   54  H33 UNL     1       4.968   0.288  -0.556  1.00  0.00     0.033 H 
HETATM   55  H34 UNL     1       7.001  -1.281   1.171  1.00  0.00     0.033 H 
HETATM   56  H35 UNL     1       5.486  -1.964   0.499  1.00  0.00     0.033 H 
HETATM   57  H36 UNL     1       6.251  -1.424  -1.836  1.00  0.00     0.036 H 
HETATM   58  H37 UNL     1       7.284  -2.600  -0.977  1.00  0.00     0.036 H 
HETATM   59  H38 UNL     1       8.673  -0.984  -2.250  1.00  0.00     0.074 H 
HETATM   60  H39 UNL     1       7.884   0.384  -1.453  1.00  0.00     0.074 H 
HETATM   61  H40 UNL     1      10.747  -1.434  -1.249  1.00  0.00     0.066 H 
HETATM   62  H41 UNL     1       9.634  -2.681  -0.512  1.00  0.00     0.066 H 
HETATM   63  H42 UNL     1      10.734  -1.715   0.522  1.00  0.00     0.066 H 
TER      64      UNL     1 
ENDMDL
