REMARK FAKE_HEAD_ATOM=C7_O1
REMARK REAL_HEAD_ATOM=C6_C5
REMARK DUMMY_ATOM=C7_H12_H13_H14_O1
REMARK TORSION=H10_C6_C5_C4
REMARK TORSION=C6_C5_C4_C1
REMARK TORSION=C4_C1_C2_C3
MODEL 0
HETATM    1  C1  UNL     1      -1.304  -0.498  -0.015  1.00  0.00    -0.107 C 
HETATM    2  C2  UNL     1      -2.491  -0.519  -0.938  1.00  0.00    -0.053 C 
HETATM    3  C3  UNL     1      -3.452   0.627  -0.635  1.00  0.00    -0.073 C 
HETATM    4  C4  UNL     1      -0.353   0.444  -0.115  1.00  0.00    -0.105 C 
HETATM    5  C5  UNL     1       0.836   0.464   0.806  1.00  0.00    -0.030 C 
HETATM    6  C6  UNL     1       1.805  -0.689   0.516  1.00  0.00     0.022 C 
HETATM    7  O1  UNL     1       2.230  -0.663  -0.835  1.00  0.00    -0.396 OA
HETATM    8  C7  UNL     1       3.465   0.010  -0.950  1.00  0.00     0.004 C 
HETATM    9  H1  UNL     1      -1.212  -1.284   0.729  1.00  0.00     0.076 H 
HETATM   10  H2  UNL     1      -2.150  -0.457  -1.994  1.00  0.00     0.038 H 
HETATM   11  H3  UNL     1      -3.031  -1.481  -0.808  1.00  0.00     0.038 H 
HETATM   12  H4  UNL     1      -4.336   0.556  -1.303  1.00  0.00     0.027 H 
HETATM   13  H5  UNL     1      -2.958   1.606  -0.807  1.00  0.00     0.027 H 
HETATM   14  H6  UNL     1      -3.798   0.570   0.420  1.00  0.00     0.027 H 
HETATM   15  H7  UNL     1      -0.446   1.230  -0.860  1.00  0.00     0.076 H 
HETATM   16  H8  UNL     1       1.370   1.431   0.685  1.00  0.00     0.042 H 
HETATM   17  H9  UNL     1       0.491   0.404   1.861  1.00  0.00     0.042 H 
HETATM   18  H10 UNL     1       2.646  -0.664   1.248  1.00  0.00     0.074 H 
HETATM   19  H11 UNL     1       1.280  -1.652   0.693  1.00  0.00     0.074 H 
HETATM   20  H12 UNL     1       4.275  -0.563  -0.447  1.00  0.00     0.066 H 
HETATM   21  H13 UNL     1       3.408   1.042  -0.541  1.00  0.00     0.066 H 
HETATM   22  H14 UNL     1       3.726   0.088  -2.025  1.00  0.00     0.066 H 
TER      23      UNL     1 
ENDMDL
