REMARK FAKE_HEAD_ATOM=C1_O1
REMARK REAL_HEAD_ATOM=C2_C3
REMARK DUMMY_ATOM=C1_H1_H2_H3_O1
MODEL 0
HETATM    1  C1  UNL     1       2.293  -0.336   0.493  1.00  0.00     0.004 C 
HETATM    2  O1  UNL     1       0.994  -0.274   1.036  1.00  0.00    -0.391 OA
HETATM    3  C2  UNL     1       0.152   0.442   0.154  1.00  0.00     0.038 A 
HETATM    4  C3  UNL     1      -0.535  -0.470  -0.860  1.00  0.00    -0.041 A 
HETATM    5  C4  UNL     1      -1.880  -0.178  -0.212  1.00  0.00    -0.060 A 
HETATM    6  C5  UNL     1      -1.198   0.729   0.801  1.00  0.00    -0.041 A 
HETATM    7  H1  UNL     1       2.292  -0.806  -0.516  1.00  0.00     0.066 H 
HETATM    8  H2  UNL     1       2.924  -0.964   1.155  1.00  0.00     0.066 H 
HETATM    9  H3  UNL     1       2.753   0.676   0.449  1.00  0.00     0.066 H 
HETATM   10  H4  UNL     1       0.601   1.362  -0.290  1.00  0.00     0.083 H 
HETATM   11  H5  UNL     1      -0.467  -0.074  -1.897  1.00  0.00     0.036 H 
HETATM   12  H6  UNL     1      -0.242  -1.539  -0.765  1.00  0.00     0.036 H 
HETATM   13  H7  UNL     1      -2.568   0.376  -0.888  1.00  0.00     0.033 H 
HETATM   14  H8  UNL     1      -2.332  -1.079   0.257  1.00  0.00     0.033 H 
HETATM   15  H9  UNL     1      -1.505   1.792   0.691  1.00  0.00     0.036 H 
HETATM   16  H10 UNL     1      -1.283   0.343   1.841  1.00  0.00     0.036 H 
TER      17      UNL     1 
ENDMDL
