REMARK FAKE_HEAD_ATOM=C6_O2
REMARK REAL_HEAD_ATOM=C2_C3
REMARK DUMMY_ATOM=C6_H12_H13_H14_O2
REMARK TORSION=H4_C2_C3_C4
REMARK TORSION=C2_C3_C4_O1
REMARK TORSION=C3_C4_O1_H8
MODEL 0
HETATM    1  C1  UNL     1      -0.922   0.317   1.795  1.00  0.00    -0.052 C 
HETATM    2  C2  UNL     1      -0.889   0.153   0.273  1.00  0.00     0.036 C 
HETATM    3  C3  UNL     1       0.387   0.775  -0.342  1.00  0.00    -0.018 C 
HETATM    4  C4  UNL     1       1.721   0.152   0.122  1.00  0.00     0.034 C 
HETATM    5  O1  UNL     1       2.771   0.863  -0.481  1.00  0.00    -0.396 OA
HETATM    6  C5  UNL     1       1.833  -1.330  -0.259  1.00  0.00    -0.052 C 
HETATM    7  O2  UNL     1      -2.023   0.821  -0.258  1.00  0.00    -0.391 OA
HETATM    8  C6  UNL     1      -2.593   0.081  -1.316  1.00  0.00     0.004 C 
HETATM    9  H1  UNL     1      -0.152  -0.319   2.279  1.00  0.00     0.030 H 
HETATM   10  H2  UNL     1      -0.758   1.379   2.080  1.00  0.00     0.030 H 
HETATM   11  H3  UNL     1      -1.912  -0.003   2.183  1.00  0.00     0.030 H 
HETATM   12  H4  UNL     1      -0.909  -0.944   0.068  1.00  0.00     0.082 H 
HETATM   13  H5  UNL     1       0.328   0.695  -1.450  1.00  0.00     0.040 H 
HETATM   14  H6  UNL     1       0.404   1.862  -0.103  1.00  0.00     0.040 H 
HETATM   15  H7  UNL     1       1.806   0.250   1.227  1.00  0.00     0.082 H 
HETATM   16  H8  UNL     1       3.591   0.676   0.048  1.00  0.00     0.210 HD
HETATM   17  H9  UNL     1       1.626  -1.472  -1.341  1.00  0.00     0.030 H 
HETATM   18  H10 UNL     1       1.128  -1.943   0.337  1.00  0.00     0.030 H 
HETATM   19  H11 UNL     1       2.858  -1.698  -0.044  1.00  0.00     0.030 H 
HETATM   20  H12 UNL     1      -1.849  -0.129  -2.116  1.00  0.00     0.066 H 
HETATM   21  H13 UNL     1      -3.035  -0.867  -0.938  1.00  0.00     0.066 H 
HETATM   22  H14 UNL     1      -3.412   0.679  -1.766  1.00  0.00     0.066 H 
TER      23      UNL     1 
ENDMDL
