MODEL 0
REMARK FAKE_HEAD_ATOM=C1_O1
REMARK REAL_HEAD_ATOM=CAA_CAB
REMARK DUMMY_ATOM=C1_H11_H12_H13_O1
REMARK TORSION=CAC_CAD_CAG_CAH
HETATM    1 CL   CWK A1160      -4.785  11.149   9.640  1.00 11.98    -0.081 Cl
HETATM    2  C1  CWK A1160      -2.211   7.592  10.043  1.00  7.67     0.010 C 
HETATM    3  O1  CWK A1160      -3.148   8.682  10.088  1.00  7.95    -0.354 OA
HETATM    4  CAA CWK A1160      -4.460   8.553  10.502  1.00  9.13     0.089 A 
HETATM    5  CAB CWK A1160      -4.944   7.368  11.084  1.00 11.38    -0.048 A 
HETATM    6  CAC CWK A1160      -6.285   7.276  11.499  1.00 14.41    -0.070 A 
HETATM    7  CAD CWK A1160      -7.194   8.357  11.339  1.00 17.00    -0.024 A 
HETATM    8  CAE CWK A1160      -6.678   9.539  10.746  1.00 14.04    -0.049 A 
HETATM    9  CAF CWK A1160      -5.338   9.640  10.342  1.00 11.05     0.068 A 
HETATM   10  CAG CWK A1160      -8.638   8.260  11.773  1.00 23.64    -0.026 A 
HETATM   11  CAH CWK A1160      -9.234   7.011  12.095  1.00 26.58    -0.071 A 
HETATM   12  CAI CWK A1160     -10.574   6.915  12.505  1.00 28.56    -0.062 A 
HETATM   13  CAJ CWK A1160     -11.371   8.066  12.596  1.00 29.50     0.044 A 
HETATM   14  CAK CWK A1160     -10.814   9.314  12.285  1.00 28.65    -0.062 A 
HETATM   15  CAL CWK A1160      -9.469   9.409  11.888  1.00 26.52    -0.071 A 
HETATM   16  CAN CWK A1160     -12.741   7.966  13.016  1.00 31.18     0.099 C 
HETATM   17  NAO CWK A1160     -13.847   7.886  13.342  1.00 32.42    -0.191 NA
HETATM   18  HAB CWK A1160      -4.290   6.517  11.238  1.00 13.66     0.087 H 
HETATM   19  HAC CWK A1160      -6.604   6.346  11.960  1.00 17.29     0.085 H 
HETATM   20  HAE CWK A1160      -7.312  10.398  10.574  1.00 16.84     0.087 H 
HETATM   21  HAH CWK A1160      -8.664   6.093  12.020  1.00 31.90     0.084 H 
HETATM   22  HAI CWK A1160     -10.994   5.941  12.748  1.00 34.28     0.085 H 
HETATM   23  HAK CWK A1160     -11.423  10.212  12.359  1.00 34.38     0.085 H 
HETATM   24  HAL CWK A1160      -9.080  10.399  11.686  1.00 31.83     0.084 H 
HETATM   25  H11 CWK A1160      -1.249   7.941   9.649  1.00  0.00     0.066 H 
HETATM   26  H12 CWK A1160      -2.052   7.179  11.048  1.00  0.00     0.066 H 
HETATM   27  H13 CWK A1160      -2.582   6.790   9.389  1.00  0.00     0.066 H 
TER      28      CWK A1160 
ENDMDL
