MODEL 0
REMARK FAKE_HEAD_ATOM=C1_O1
REMARK REAL_HEAD_ATOM=C1'_C2
REMARK DUMMY_ATOM=C1_H11_H12_H13_O1
ATOM      1  C10 MHD A 202      17.149  16.618  35.272  1.00 24.46    -0.014 C 
ATOM      2 1H10 MHD A 202      16.783  17.606  35.637  1.00  0.00     0.057 H 
ATOM      3 2H10 MHD A 202      17.320  16.724  34.175  1.00  0.00     0.057 H 
ATOM      4 3H10 MHD A 202      18.181  16.490  35.673  1.00  0.00     0.057 H 
ATOM      5  N3  MHD A 202      16.458  15.342  35.470  1.00 20.03    -0.358 N 
ATOM      6  C2  MHD A 202      16.901  14.145  35.028  1.00 17.24     0.013 A 
ATOM      7  H2  MHD A 202      17.830  13.958  34.463  1.00  0.00     0.116 H 
ATOM      8  C4  MHD A 202      15.267  15.203  36.129  1.00 17.86     0.047 A 
ATOM      9  C5  MHD A 202      14.378  16.185  36.792  1.00 19.71    -0.056 A 
ATOM     10  H5  MHD A 202      14.644  17.255  36.801  1.00  0.00     0.087 H 
ATOM     11  C6  MHD A 202      13.188  15.744  37.412  1.00 24.34    -0.081 A 
ATOM     12  H6  MHD A 202      12.529  16.474  37.910  1.00  0.00     0.083 H 
ATOM     13  C7  MHD A 202      12.831  14.365  37.400  1.00 22.22    -0.082 A 
ATOM     14  C8  MHD A 202      13.713  13.392  36.738  1.00 19.09    -0.068 A 
ATOM     15  C9  MHD A 202      14.915  13.840  36.125  1.00 16.67     0.025 A 
ATOM     16  C1' MHD A 202      15.952  13.177  35.424  1.00 16.04     0.096 A 
ATOM     17  O1  MHD A 202      15.972  11.752  35.193  1.00 18.01    -0.354 OA
ATOM     18  C1  MHD A 202      17.119  11.365  34.591  1.00 16.94     0.010 C 
ATOM     19  H11 MHD A 202      17.134  10.264  34.413  1.00  0.00     0.066 H 
ATOM     20  H12 MHD A 202      18.014  11.698  35.166  1.00  0.00     0.066 H 
ATOM     21  H13 MHD A 202      17.298  11.934  33.649  1.00  0.00     0.066 H 
ATOM     22  H7  MHD A 202      11.918  14.036  37.874  1.00  0.00     0.083 H 
ATOM     23  H8  MHD A 202      13.450  12.345  36.718  1.00  0.00     0.085 H 
TER      24      MHD A 202 
ENDMDL
