REMARK FAKE_HEAD_ATOM=C9_O2
REMARK REAL_HEAD_ATOM=C8_C7
REMARK DUMMY_ATOM=C9_H8_H9_H10_O2
REMARK TORSION=C3_C2_C1_O1
MODEL 0
HETATM    1  O1  UNL     1       0.845   2.713   0.418  1.00  0.00    -0.301 OA
HETATM    2  C1  UNL     1      -0.310   2.526  -0.047  1.00  0.00     0.119 C 
HETATM    3  C2  UNL     1      -0.940   1.184  -0.087  1.00  0.00     0.010 A 
HETATM    4  C3  UNL     1      -2.337   1.141  -0.246  1.00  0.00    -0.070 A 
HETATM    5  C4  UNL     1      -3.022  -0.073  -0.240  1.00  0.00    -0.082 A 
HETATM    6  C5  UNL     1      -2.325  -1.266  -0.074  1.00  0.00    -0.082 A 
HETATM    7  C6  UNL     1      -0.938  -1.253   0.067  1.00  0.00    -0.074 A 
HETATM    8  C7  UNL     1      -0.216  -0.039   0.034  1.00  0.00    -0.021 A 
HETATM    9  C8  UNL     1       1.297  -0.059   0.149  1.00  0.00     0.043 C 
HETATM   10  O2  UNL     1       1.815  -1.356  -0.069  1.00  0.00    -0.391 OA
HETATM   11  C9  UNL     1       3.216  -1.337   0.095  1.00  0.00     0.004 C 
HETATM   12  H1  UNL     1      -0.870   3.388  -0.387  1.00  0.00     0.151 H 
HETATM   13  H2  UNL     1      -2.905   2.057  -0.355  1.00  0.00     0.085 H 
HETATM   14  H3  UNL     1      -4.098  -0.087  -0.354  1.00  0.00     0.083 H 
HETATM   15  H4  UNL     1      -2.862  -2.206  -0.056  1.00  0.00     0.083 H 
HETATM   16  H5  UNL     1      -0.433  -2.202   0.195  1.00  0.00     0.084 H 
HETATM   17  H6  UNL     1       1.714   0.631  -0.619  1.00  0.00     0.081 H 
HETATM   18  H7  UNL     1       1.563   0.300   1.170  1.00  0.00     0.081 H 
HETATM   19  H8  UNL     1       3.699  -0.653  -0.638  1.00  0.00     0.066 H 
HETATM   20  H9  UNL     1       3.495  -1.054   1.134  1.00  0.00     0.066 H 
HETATM   21  H10 UNL     1       3.607  -2.358  -0.091  1.00  0.00     0.066 H 
TER      22      UNL     1 
ENDMDL
