REMARK FAKE_HEAD_ATOM=C7_O1
REMARK REAL_HEAD_ATOM=C6_C5
REMARK DUMMY_ATOM=C7_H9_H10_H11_O1
REMARK TORSION=C4_C3_C2_C1
MODEL 0
HETATM    1  C1  UNL     1      -3.379   0.784   0.367  1.00  0.00    -0.073 C 
HETATM    2  C2  UNL     1      -2.455   0.455  -0.800  1.00  0.00    -0.044 C 
HETATM    3  C3  UNL     1      -1.246  -0.306  -0.325  1.00  0.00    -0.058 A 
HETATM    4  C4  UNL     1      -0.101   0.383   0.107  1.00  0.00    -0.069 A 
HETATM    5  C5  UNL     1       1.017  -0.323   0.581  1.00  0.00    -0.034 A 
HETATM    6  C6  UNL     1       2.257   0.412   1.017  1.00  0.00     0.043 C 
HETATM    7  O1  UNL     1       3.307   0.207   0.091  1.00  0.00    -0.391 OA
HETATM    8  C7  UNL     1       3.245   1.170  -0.938  1.00  0.00     0.004 C 
HETATM    9  C8  UNL     1       0.983  -1.725   0.619  1.00  0.00    -0.075 A 
HETATM   10  C9  UNL     1      -0.160  -2.413   0.204  1.00  0.00    -0.082 A 
HETATM   11  C10 UNL     1      -1.273  -1.708  -0.261  1.00  0.00    -0.077 A 
HETATM   12  H1  UNL     1      -2.848   1.412   1.114  1.00  0.00     0.028 H 
HETATM   13  H2  UNL     1      -4.263   1.344  -0.004  1.00  0.00     0.028 H 
HETATM   14  H3  UNL     1      -3.729  -0.150   0.856  1.00  0.00     0.028 H 
HETATM   15  H4  UNL     1      -2.141   1.399  -1.297  1.00  0.00     0.039 H 
HETATM   16  H5  UNL     1      -3.013  -0.144  -1.552  1.00  0.00     0.039 H 
HETATM   17  H6  UNL     1      -0.080   1.466   0.071  1.00  0.00     0.085 H 
HETATM   18  H7  UNL     1       2.580   0.000   1.997  1.00  0.00     0.081 H 
HETATM   19  H8  UNL     1       2.049   1.492   1.207  1.00  0.00     0.081 H 
HETATM   20  H9  UNL     1       4.040   0.947  -1.679  1.00  0.00     0.066 H 
HETATM   21  H10 UNL     1       3.433   2.191  -0.540  1.00  0.00     0.066 H 
HETATM   22  H11 UNL     1       2.269   1.134  -1.472  1.00  0.00     0.066 H 
HETATM   23  H12 UNL     1       1.841  -2.283   0.973  1.00  0.00     0.084 H 
HETATM   24  H13 UNL     1      -0.183  -3.494   0.244  1.00  0.00     0.083 H 
HETATM   25  H14 UNL     1      -2.155  -2.254  -0.572  1.00  0.00     0.084 H 
TER      26      UNL     1 
ENDMDL
