REMARK FAKE_HEAD_ATOM=C5_O2
REMARK REAL_HEAD_ATOM=C4_C3
REMARK DUMMY_ATOM=C5_H5_H6_H7_O2
MODEL 0
HETATM    1  O1  UNL     1       2.335   2.379   0.354  1.00  0.00    -0.361 OA
HETATM    2  C1  UNL     1       1.813   1.102   0.160  1.00  0.00     0.066 A 
HETATM    3  C2  UNL     1       0.517   0.786   0.592  1.00  0.00    -0.043 A 
HETATM    4  C3  UNL     1      -0.002  -0.504   0.394  1.00  0.00    -0.032 A 
HETATM    5  C4  UNL     1      -1.401  -0.844   0.836  1.00  0.00     0.043 C 
HETATM    6  O2  UNL     1      -2.246  -1.019  -0.285  1.00  0.00    -0.391 OA
HETATM    7  C5  UNL     1      -2.801   0.217  -0.677  1.00  0.00     0.004 C 
HETATM    8  C6  UNL     1       0.785  -1.472  -0.251  1.00  0.00    -0.075 A 
HETATM    9  C7  UNL     1       2.077  -1.156  -0.681  1.00  0.00    -0.080 A 
HETATM   10  C8  UNL     1       2.591   0.128  -0.475  1.00  0.00    -0.051 A 
HETATM   11  H1  UNL     1       1.798   3.107   0.810  1.00  0.00     0.217 HD
HETATM   12  H2  UNL     1      -0.085   1.545   1.078  1.00  0.00     0.088 H 
HETATM   13  H3  UNL     1      -1.794  -0.095   1.564  1.00  0.00     0.081 H 
HETATM   14  H4  UNL     1      -1.366  -1.805   1.392  1.00  0.00     0.081 H 
HETATM   15  H5  UNL     1      -3.407   0.059  -1.592  1.00  0.00     0.066 H 
HETATM   16  H6  UNL     1      -3.478   0.617   0.110  1.00  0.00     0.066 H 
HETATM   17  H7  UNL     1      -2.010   0.960  -0.923  1.00  0.00     0.066 H 
HETATM   18  H8  UNL     1       0.397  -2.468  -0.421  1.00  0.00     0.084 H 
HETATM   19  H9  UNL     1       2.681  -1.906  -1.175  1.00  0.00     0.083 H 
HETATM   20  H10 UNL     1       3.592   0.366  -0.811  1.00  0.00     0.087 H 
TER      21      UNL     1 
ENDMDL
