REMARK FAKE_HEAD_ATOM=C9_O3
REMARK REAL_HEAD_ATOM=C8_C7
REMARK DUMMY_ATOM=C9_H7_H8_H9_O3
REMARK TORSION=C5_C4_C3_C2
REMARK TORSION=C3_C2_C1_O1
MODEL 0
HETATM    1  O1  UNL     1       5.778  -0.993  -0.007  1.00  0.00    -0.645 OA
HETATM    2  C1  UNL     1       5.331   0.053   0.534  1.00  0.00     0.198 C 
HETATM    3  O2  UNL     1       6.220   0.990   1.045  1.00  0.00    -0.645 OA
HETATM    4  C2  UNL     1       3.883   0.302   0.630  1.00  0.00    -0.009 C 
HETATM    5  C3  UNL     1       2.975  -0.573   0.176  1.00  0.00    -0.067 C 
HETATM    6  C4  UNL     1       1.509  -0.362   0.267  1.00  0.00    -0.036 A 
HETATM    7  C5  UNL     1       0.661  -1.477   0.169  1.00  0.00    -0.072 A 
HETATM    8  C6  UNL     1      -0.727  -1.326   0.240  1.00  0.00    -0.074 A 
HETATM    9  C7  UNL     1      -1.293  -0.056   0.413  1.00  0.00    -0.035 A 
HETATM   10  C8  UNL     1      -2.785   0.111   0.448  1.00  0.00     0.043 C 
HETATM   11  O3  UNL     1      -3.255   0.295  -0.870  1.00  0.00    -0.391 OA
HETATM   12  C9  UNL     1      -4.656   0.452  -0.850  1.00  0.00     0.004 C 
HETATM   13  C10 UNL     1      -0.455   1.067   0.477  1.00  0.00    -0.074 A 
HETATM   14  C11 UNL     1       0.934   0.918   0.407  1.00  0.00    -0.072 A 
HETATM   15  H1  UNL     1       3.574   1.219   1.112  1.00  0.00     0.094 H 
HETATM   16  H2  UNL     1       3.316  -1.511  -0.247  1.00  0.00     0.085 H 
HETATM   17  H3  UNL     1       1.074  -2.471   0.042  1.00  0.00     0.084 H 
HETATM   18  H4  UNL     1      -1.360  -2.202   0.159  1.00  0.00     0.084 H 
HETATM   19  H5  UNL     1      -3.242  -0.796   0.909  1.00  0.00     0.081 H 
HETATM   20  H6  UNL     1      -3.039   0.989   1.086  1.00  0.00     0.081 H 
HETATM   21  H7  UNL     1      -5.010   0.596  -1.892  1.00  0.00     0.066 H 
HETATM   22  H8  UNL     1      -4.952   1.353  -0.268  1.00  0.00     0.066 H 
HETATM   23  H9  UNL     1      -5.158  -0.455  -0.447  1.00  0.00     0.066 H 
HETATM   24  H10 UNL     1      -0.876   2.060   0.574  1.00  0.00     0.084 H 
HETATM   25  H11 UNL     1       1.545   1.809   0.435  1.00  0.00     0.084 H 
TER      26      UNL     1 
ENDMDL
