REMARK FAKE_HEAD_ATOM=C1_O1
REMARK REAL_HEAD_ATOM=C2_C3
REMARK DUMMY_ATOM=C1_H1_H2_H3_O1
REMARK TORSION=C6_C7_C8_C9
MODEL 0
HETATM    1  C1  UNL     1      -3.060   0.782  -0.260  1.00  0.00     0.004 C 
HETATM    2  O1  UNL     1      -2.838  -0.577  -0.569  1.00  0.00    -0.391 OA
HETATM    3  C2  UNL     1      -1.675  -0.714  -1.362  1.00  0.00     0.043 C 
HETATM    4  C3  UNL     1      -0.454  -0.849  -0.490  1.00  0.00    -0.034 A 
HETATM    5  C4  UNL     1      -0.255  -2.018   0.257  1.00  0.00    -0.075 A 
HETATM    6  C5  UNL     1       0.870  -2.147   1.073  1.00  0.00    -0.082 A 
HETATM    7  C6  UNL     1       1.796  -1.106   1.162  1.00  0.00    -0.073 A 
HETATM    8  C7  UNL     1       1.604   0.085   0.442  1.00  0.00    -0.036 A 
HETATM    9  C8  UNL     1       2.619   1.161   0.571  1.00  0.00    -0.082 C 
HETATM   10  C9  UNL     1       2.407   2.435   0.238  1.00  0.00    -0.120 C 
HETATM   11  C10 UNL     1       0.475   0.201  -0.394  1.00  0.00    -0.065 A 
HETATM   12  H1  UNL     1      -3.941   0.852   0.410  1.00  0.00     0.066 H 
HETATM   13  H2  UNL     1      -2.194   1.225   0.278  1.00  0.00     0.066 H 
HETATM   14  H3  UNL     1      -3.289   1.367  -1.178  1.00  0.00     0.066 H 
HETATM   15  H4  UNL     1      -1.558   0.107  -2.109  1.00  0.00     0.081 H 
HETATM   16  H5  UNL     1      -1.778  -1.643  -1.963  1.00  0.00     0.081 H 
HETATM   17  H6  UNL     1      -0.968  -2.832   0.201  1.00  0.00     0.084 H 
HETATM   18  H7  UNL     1       1.023  -3.056   1.641  1.00  0.00     0.083 H 
HETATM   19  H8  UNL     1       2.661  -1.226   1.804  1.00  0.00     0.084 H 
HETATM   20  H9  UNL     1       3.582   0.909   1.000  1.00  0.00     0.083 H 
HETATM   21  H10 UNL     1       3.196   3.162   0.377  1.00  0.00     0.066 H 
HETATM   22  H11 UNL     1       1.459   2.786  -0.144  1.00  0.00     0.066 H 
HETATM   23  H12 UNL     1       0.315   1.091  -0.987  1.00  0.00     0.085 H 
TER      24      UNL     1 
ENDMDL
