REMARK FAKE_HEAD_ATOM=C10_O1
REMARK REAL_HEAD_ATOM=C9_C8
REMARK DUMMY_ATOM=C10_H12_H13_H14_O1
REMARK TORSION=C4_C3_C2_C1
MODEL 0
HETATM    1  C1  UNL     1      -1.463  -2.256  -0.160  1.00  0.00    -0.073 C 
HETATM    2  C2  UNL     1      -0.856  -1.379   0.931  1.00  0.00    -0.044 C 
HETATM    3  C3  UNL     1      -0.931   0.083   0.552  1.00  0.00    -0.050 A 
HETATM    4  C4  UNL     1      -2.108   0.791   0.855  1.00  0.00    -0.076 A 
HETATM    5  C5  UNL     1      -2.236   2.139   0.518  1.00  0.00    -0.082 A 
HETATM    6  C6  UNL     1      -1.194   2.799  -0.130  1.00  0.00    -0.082 A 
HETATM    7  C7  UNL     1      -0.023   2.112  -0.451  1.00  0.00    -0.074 A 
HETATM    8  C8  UNL     1       0.120   0.749  -0.136  1.00  0.00    -0.028 A 
HETATM    9  C9  UNL     1       1.414   0.056  -0.486  1.00  0.00     0.043 C 
HETATM   10  O1  UNL     1       2.219  -0.022   0.671  1.00  0.00    -0.391 OA
HETATM   11  C10 UNL     1       3.398  -0.736   0.375  1.00  0.00     0.004 C 
HETATM   12  H1  UNL     1      -2.535  -2.004  -0.305  1.00  0.00     0.028 H 
HETATM   13  H2  UNL     1      -1.387  -3.324   0.136  1.00  0.00     0.028 H 
HETATM   14  H3  UNL     1      -0.924  -2.115  -1.120  1.00  0.00     0.028 H 
HETATM   15  H4  UNL     1      -1.412  -1.551   1.879  1.00  0.00     0.039 H 
HETATM   16  H5  UNL     1       0.189  -1.695   1.126  1.00  0.00     0.039 H 
HETATM   17  H6  UNL     1      -2.930   0.296   1.358  1.00  0.00     0.084 H 
HETATM   18  H7  UNL     1      -3.145   2.673   0.762  1.00  0.00     0.083 H 
HETATM   19  H8  UNL     1      -1.293   3.847  -0.384  1.00  0.00     0.083 H 
HETATM   20  H9  UNL     1       0.775   2.648  -0.951  1.00  0.00     0.084 H 
HETATM   21  H10 UNL     1       1.942   0.626  -1.285  1.00  0.00     0.081 H 
HETATM   22  H11 UNL     1       1.192  -0.953  -0.897  1.00  0.00     0.081 H 
HETATM   23  H12 UNL     1       3.169  -1.786   0.087  1.00  0.00     0.066 H 
HETATM   24  H13 UNL     1       3.987  -0.232  -0.424  1.00  0.00     0.066 H 
HETATM   25  H14 UNL     1       4.029  -0.769   1.287  1.00  0.00     0.066 H 
TER      26      UNL     1 
ENDMDL
