REMARK FAKE_HEAD_ATOM=C10_O1
REMARK REAL_HEAD_ATOM=C9_C6
REMARK DUMMY_ATOM=C10_H12_H13_H14_O1
REMARK TORSION=C4_C3_C2_C1
MODEL 0
HETATM    1  C1  UNL     1       3.979  -0.849   0.087  1.00  0.00    -0.073 C 
HETATM    2  C2  UNL     1       3.204   0.306  -0.537  1.00  0.00    -0.044 C 
HETATM    3  C3  UNL     1       1.733   0.180  -0.245  1.00  0.00    -0.059 A 
HETATM    4  C4  UNL     1       0.898  -0.546  -1.109  1.00  0.00    -0.076 A 
HETATM    5  C5  UNL     1      -0.462  -0.688  -0.821  1.00  0.00    -0.074 A 
HETATM    6  C6  UNL     1      -1.003  -0.125   0.345  1.00  0.00    -0.035 A 
HETATM    7  C7  UNL     1      -0.169   0.604   1.207  1.00  0.00    -0.074 A 
HETATM    8  C8  UNL     1       1.191   0.747   0.920  1.00  0.00    -0.076 A 
HETATM    9  C9  UNL     1      -2.472  -0.245   0.634  1.00  0.00     0.043 C 
HETATM   10  O1  UNL     1      -3.144   0.843   0.038  1.00  0.00    -0.391 OA
HETATM   11  C10 UNL     1      -4.525   0.741   0.302  1.00  0.00     0.004 C 
HETATM   12  H1  UNL     1       3.846  -0.851   1.190  1.00  0.00     0.028 H 
HETATM   13  H2  UNL     1       5.060  -0.738  -0.141  1.00  0.00     0.028 H 
HETATM   14  H3  UNL     1       3.627  -1.818  -0.327  1.00  0.00     0.028 H 
HETATM   15  H4  UNL     1       3.376   0.312  -1.636  1.00  0.00     0.039 H 
HETATM   16  H5  UNL     1       3.593   1.268  -0.137  1.00  0.00     0.039 H 
HETATM   17  H6  UNL     1       1.301  -1.000  -2.006  1.00  0.00     0.084 H 
HETATM   18  H7  UNL     1      -1.094  -1.240  -1.507  1.00  0.00     0.084 H 
HETATM   19  H8  UNL     1      -0.572   1.061   2.103  1.00  0.00     0.084 H 
HETATM   20  H9  UNL     1       1.823   1.301   1.604  1.00  0.00     0.084 H 
HETATM   21  H10 UNL     1      -2.627  -0.251   1.738  1.00  0.00     0.081 H 
HETATM   22  H11 UNL     1      -2.845  -1.214   0.227  1.00  0.00     0.081 H 
HETATM   23  H12 UNL     1      -4.952  -0.188  -0.136  1.00  0.00     0.066 H 
HETATM   24  H13 UNL     1      -5.039   1.602  -0.172  1.00  0.00     0.066 H 
HETATM   25  H14 UNL     1      -4.731   0.787   1.394  1.00  0.00     0.066 H 
TER      26      UNL     1 
ENDMDL
