REMARK FAKE_HEAD_ATOM=C11_O2
REMARK REAL_HEAD_ATOM=C10_C9
REMARK DUMMY_ATOM=C11_H9_H10_H11_O2
REMARK TORSION=C5_C4_C3_C2
REMARK TORSION=C3_C2_C1_O1
MODEL 0
HETATM    1  O1  UNL     1      -3.686  -0.491   2.195  1.00  0.00    -0.645 OA
HETATM    2  C1  UNL     1      -3.624  -0.680   0.819  1.00  0.00     0.198 C 
HETATM    3  C2  UNL     1      -2.462  -0.221   0.043  1.00  0.00    -0.009 C 
HETATM    4  C3  UNL     1      -1.435   0.415   0.614  1.00  0.00    -0.066 C 
HETATM    5  C4  UNL     1      -0.289   0.909  -0.176  1.00  0.00    -0.028 A 
HETATM    6  C5  UNL     1      -0.013   2.285  -0.136  1.00  0.00    -0.072 A 
HETATM    7  C6  UNL     1       1.057   2.816  -0.858  1.00  0.00    -0.082 A 
HETATM    8  C7  UNL     1       1.872   1.978  -1.618  1.00  0.00    -0.082 A 
HETATM    9  C8  UNL     1       1.629   0.603  -1.647  1.00  0.00    -0.074 A 
HETATM   10  C9  UNL     1       0.558   0.048  -0.923  1.00  0.00    -0.024 A 
HETATM   11  C10 UNL     1       0.388  -1.458  -0.917  1.00  0.00     0.043 C 
HETATM   12  O2  UNL     1       0.395  -1.965   0.404  1.00  0.00    -0.391 OA
HETATM   13  C11 UNL     1       1.721  -2.152   0.847  1.00  0.00     0.004 C 
HETATM   14  O3  UNL     1      -4.576  -1.255   0.230  1.00  0.00    -0.645 OA
HETATM   15  H1  UNL     1      -2.464  -0.390  -1.027  1.00  0.00     0.094 H 
HETATM   16  H2  UNL     1      -1.471   0.669   1.667  1.00  0.00     0.085 H 
HETATM   17  H3  UNL     1      -0.637   2.952   0.447  1.00  0.00     0.084 H 
HETATM   18  H4  UNL     1       1.254   3.880  -0.830  1.00  0.00     0.083 H 
HETATM   19  H5  UNL     1       2.701   2.392  -2.176  1.00  0.00     0.083 H 
HETATM   20  H6  UNL     1       2.291  -0.031  -2.224  1.00  0.00     0.084 H 
HETATM   21  H7  UNL     1       1.144  -1.963  -1.563  1.00  0.00     0.081 H 
HETATM   22  H8  UNL     1      -0.586  -1.708  -1.382  1.00  0.00     0.081 H 
HETATM   23  H9  UNL     1       2.303  -1.205   0.807  1.00  0.00     0.066 H 
HETATM   24  H10 UNL     1       1.697  -2.485   1.904  1.00  0.00     0.066 H 
HETATM   25  H11 UNL     1       2.230  -2.946   0.256  1.00  0.00     0.066 H 
TER      26      UNL     1 
ENDMDL
