REMARK FAKE_HEAD_ATOM=C10_O2
REMARK REAL_HEAD_ATOM=C9_C8
REMARK DUMMY_ATOM=C10_H8_H9_H10_O2
REMARK TORSION=C5_C4_C3_C2
REMARK TORSION=C3_C2_C1_O1
MODEL 0
HETATM    1  O1  UNL     1      -6.123  -0.869  -0.142  1.00  0.00    -0.645 OA
HETATM    2  C1  UNL     1      -4.971  -0.359   0.442  1.00  0.00     0.198 C 
HETATM    3  C2  UNL     1      -3.661  -0.667  -0.155  1.00  0.00    -0.009 C 
HETATM    4  C3  UNL     1      -2.515  -0.186   0.348  1.00  0.00    -0.067 C 
HETATM    5  C4  UNL     1      -1.178  -0.464  -0.234  1.00  0.00    -0.035 A 
HETATM    6  C5  UNL     1      -0.926  -1.584  -1.050  1.00  0.00    -0.073 A 
HETATM    7  C6  UNL     1       0.355  -1.815  -1.557  1.00  0.00    -0.082 A 
HETATM    8  C7  UNL     1       1.399  -0.939  -1.257  1.00  0.00    -0.075 A 
HETATM    9  C8  UNL     1       1.168   0.183  -0.448  1.00  0.00    -0.034 A 
HETATM   10  C9  UNL     1       2.301   1.100  -0.085  1.00  0.00     0.043 C 
HETATM   11  O2  UNL     1       2.903   0.633   1.103  1.00  0.00    -0.391 OA
HETATM   12  C10 UNL     1       3.967   1.488   1.456  1.00  0.00     0.004 C 
HETATM   13  C11 UNL     1      -0.116   0.403   0.076  1.00  0.00    -0.065 A 
HETATM   14  O3  UNL     1      -5.066   0.357   1.475  1.00  0.00    -0.645 OA
HETATM   15  H1  UNL     1      -3.659  -1.282  -1.043  1.00  0.00     0.094 H 
HETATM   16  H2  UNL     1      -2.556   0.479   1.203  1.00  0.00     0.085 H 
HETATM   17  H3  UNL     1      -1.702  -2.302  -1.279  1.00  0.00     0.084 H 
HETATM   18  H4  UNL     1       0.542  -2.683  -2.177  1.00  0.00     0.083 H 
HETATM   19  H5  UNL     1       2.389  -1.139  -1.649  1.00  0.00     0.084 H 
HETATM   20  H6  UNL     1       1.904   2.133   0.050  1.00  0.00     0.081 H 
HETATM   21  H7  UNL     1       3.038   1.120  -0.921  1.00  0.00     0.081 H 
HETATM   22  H8  UNL     1       4.754   1.497   0.670  1.00  0.00     0.066 H 
HETATM   23  H9  UNL     1       3.604   2.521   1.656  1.00  0.00     0.066 H 
HETATM   24  H10 UNL     1       4.429   1.109   2.390  1.00  0.00     0.066 H 
HETATM   25  H11 UNL     1      -0.289   1.257   0.721  1.00  0.00     0.085 H 
TER      26      UNL     1 
ENDMDL
