REMARK FAKE_HEAD_ATOM=C1_O1
REMARK REAL_HEAD_ATOM=C2_C3
REMARK DUMMY_ATOM=C1_H1_H2_H3_O1
MODEL 0
HETATM    1  C1  UNL     1       2.722  -0.192   0.660  1.00  0.00     0.004 C 
HETATM    2  O1  UNL     1       2.054  -1.032  -0.256  1.00  0.00    -0.391 OA
HETATM    3  C2  UNL     1       1.235  -0.264  -1.117  1.00  0.00     0.043 C 
HETATM    4  C3  UNL     1      -0.128  -0.063  -0.509  1.00  0.00    -0.035 A 
HETATM    5  C4  UNL     1      -1.004  -1.152  -0.374  1.00  0.00    -0.075 A 
HETATM    6  C5  UNL     1      -2.264  -0.975   0.208  1.00  0.00    -0.082 A 
HETATM    7  C6  UNL     1      -2.653   0.288   0.663  1.00  0.00    -0.083 A 
HETATM    8  C7  UNL     1      -1.783   1.375   0.538  1.00  0.00    -0.082 A 
HETATM    9  C8  UNL     1      -0.523   1.202  -0.043  1.00  0.00    -0.075 A 
HETATM   10  H1  UNL     1       2.003   0.403   1.266  1.00  0.00     0.066 H 
HETATM   11  H2  UNL     1       3.305  -0.825   1.360  1.00  0.00     0.066 H 
HETATM   12  H3  UNL     1       3.438   0.479   0.137  1.00  0.00     0.066 H 
HETATM   13  H4  UNL     1       1.701   0.707  -1.409  1.00  0.00     0.081 H 
HETATM   14  H5  UNL     1       1.112  -0.828  -2.066  1.00  0.00     0.081 H 
HETATM   15  H6  UNL     1      -0.712  -2.137  -0.718  1.00  0.00     0.084 H 
HETATM   16  H7  UNL     1      -2.937  -1.816   0.308  1.00  0.00     0.083 H 
HETATM   17  H8  UNL     1      -3.628   0.424   1.114  1.00  0.00     0.083 H 
HETATM   18  H9  UNL     1      -2.084   2.352   0.894  1.00  0.00     0.083 H 
HETATM   19  H10 UNL     1       0.143   2.051  -0.128  1.00  0.00     0.084 H 
TER      20      UNL     1 
ENDMDL
