REMARK FAKE_HEAD_ATOM=C17_O1
REMARK REAL_HEAD_ATOM=C16_C15
REMARK DUMMY_ATOM=C17_H26_H27_H28_O1
REMARK TORSION=C11_C10_C9_C8
REMARK TORSION=C10_C9_C8_C7
REMARK TORSION=C9_C8_C7_C6
REMARK TORSION=C8_C7_C6_C5
REMARK TORSION=C7_C6_C5_C4
REMARK TORSION=C6_C5_C4_C3
REMARK TORSION=C5_C4_C3_C2
REMARK TORSION=C4_C3_C2_C1
MODEL 0
HETATM    1  C1  UNL     1       6.395  -0.839  -0.940  1.00  0.00    -0.077 C 
HETATM    2  C2  UNL     1       5.267   0.070  -0.460  1.00  0.00    -0.069 C 
HETATM    3  C3  UNL     1       4.010  -0.106  -1.324  1.00  0.00    -0.065 C 
HETATM    4  C4  UNL     1       2.903   0.907  -0.981  1.00  0.00    -0.065 C 
HETATM    5  C5  UNL     1       2.355   0.810   0.456  1.00  0.00    -0.065 C 
HETATM    6  C6  UNL     1       1.782  -0.567   0.845  1.00  0.00    -0.065 C 
HETATM    7  C7  UNL     1       0.655  -1.086  -0.071  1.00  0.00    -0.065 C 
HETATM    8  C8  UNL     1      -0.563  -0.153  -0.190  1.00  0.00    -0.061 C 
HETATM    9  C9  UNL     1      -1.267   0.084   1.154  1.00  0.00    -0.040 C 
HETATM   10  C10 UNL     1      -2.570   0.827   0.949  1.00  0.00    -0.050 A 
HETATM   11  C11 UNL     1      -2.512   2.219   0.755  1.00  0.00    -0.076 A 
HETATM   12  C12 UNL     1      -3.674   2.955   0.519  1.00  0.00    -0.082 A 
HETATM   13  C13 UNL     1      -4.909   2.313   0.465  1.00  0.00    -0.082 A 
HETATM   14  C14 UNL     1      -4.988   0.932   0.648  1.00  0.00    -0.074 A 
HETATM   15  C15 UNL     1      -3.830   0.170   0.891  1.00  0.00    -0.028 A 
HETATM   16  C16 UNL     1      -3.977  -1.325   1.085  1.00  0.00     0.043 C 
HETATM   17  O1  UNL     1      -3.274  -2.044   0.091  1.00  0.00    -0.391 OA
HETATM   18  C17 UNL     1      -4.053  -2.144  -1.082  1.00  0.00     0.004 C 
HETATM   19  H1  UNL     1       7.286  -0.701  -0.292  1.00  0.00     0.027 H 
HETATM   20  H2  UNL     1       6.675  -0.589  -1.985  1.00  0.00     0.027 H 
HETATM   21  H3  UNL     1       6.080  -1.904  -0.889  1.00  0.00     0.027 H 
HETATM   22  H4  UNL     1       5.612   1.126  -0.507  1.00  0.00     0.032 H 
HETATM   23  H5  UNL     1       5.041  -0.184   0.597  1.00  0.00     0.032 H 
HETATM   24  H6  UNL     1       3.626  -1.144  -1.230  1.00  0.00     0.033 H 
HETATM   25  H7  UNL     1       4.284   0.043  -2.391  1.00  0.00     0.033 H 
HETATM   26  H8  UNL     1       2.069   0.783  -1.704  1.00  0.00     0.033 H 
HETATM   27  H9  UNL     1       3.299   1.934  -1.136  1.00  0.00     0.033 H 
HETATM   28  H10 UNL     1       1.570   1.585   0.589  1.00  0.00     0.033 H 
HETATM   29  H11 UNL     1       3.159   1.074   1.175  1.00  0.00     0.033 H 
HETATM   30  H12 UNL     1       2.602  -1.315   0.858  1.00  0.00     0.033 H 
HETATM   31  H13 UNL     1       1.409  -0.513   1.889  1.00  0.00     0.033 H 
HETATM   32  H14 UNL     1       1.062  -1.276  -1.087  1.00  0.00     0.033 H 
HETATM   33  H15 UNL     1       0.314  -2.070   0.317  1.00  0.00     0.033 H 
HETATM   34  H16 UNL     1      -1.278  -0.622  -0.900  1.00  0.00     0.033 H 
HETATM   35  H17 UNL     1      -0.261   0.817  -0.638  1.00  0.00     0.033 H 
HETATM   36  H18 UNL     1      -1.425  -0.881   1.676  1.00  0.00     0.040 H 
HETATM   37  H19 UNL     1      -0.612   0.691   1.814  1.00  0.00     0.040 H 
HETATM   38  H20 UNL     1      -1.561   2.736   0.782  1.00  0.00     0.084 H 
HETATM   39  H21 UNL     1      -3.615   4.026   0.372  1.00  0.00     0.083 H 
HETATM   40  H22 UNL     1      -5.808   2.886   0.278  1.00  0.00     0.083 H 
HETATM   41  H23 UNL     1      -5.959   0.455   0.597  1.00  0.00     0.084 H 
HETATM   42  H24 UNL     1      -3.558  -1.593   2.077  1.00  0.00     0.081 H 
HETATM   43  H25 UNL     1      -5.048  -1.632   1.144  1.00  0.00     0.081 H 
HETATM   44  H26 UNL     1      -4.320  -1.141  -1.481  1.00  0.00     0.066 H 
HETATM   45  H27 UNL     1      -4.969  -2.749  -0.902  1.00  0.00     0.066 H 
HETATM   46  H28 UNL     1      -3.455  -2.663  -1.858  1.00  0.00     0.066 H 
TER      47      UNL     1 
ENDMDL
