REMARK FAKE_HEAD_ATOM=C1_O1
REMARK REAL_HEAD_ATOM=C2_C3
REMARK DUMMY_ATOM=C1_H1_H2_H3_O1
REMARK TORSION=C5_C6_C7_C8
REMARK TORSION=C6_C7_C8_C9
REMARK TORSION=C7_C8_C9_C10
REMARK TORSION=C8_C9_C10_C11
REMARK TORSION=C9_C10_C11_C12
REMARK TORSION=C10_C11_C12_C13
REMARK TORSION=C11_C12_C13_C14
REMARK TORSION=C12_C13_C14_C15
MODEL 0
HETATM    1  C1  UNL     1       7.834   0.576  -0.799  1.00  0.00     0.004 C 
HETATM    2  O1  UNL     1       7.532  -0.626  -0.126  1.00  0.00    -0.391 OA
HETATM    3  C2  UNL     1       6.592  -1.380  -0.867  1.00  0.00     0.043 C 
HETATM    4  C3  UNL     1       5.187  -0.973  -0.508  1.00  0.00    -0.035 A 
HETATM    5  C4  UNL     1       4.673  -1.271   0.763  1.00  0.00    -0.074 A 
HETATM    6  C5  UNL     1       3.377  -0.880   1.110  1.00  0.00    -0.076 A 
HETATM    7  C6  UNL     1       2.582  -0.172   0.195  1.00  0.00    -0.058 A 
HETATM    8  C7  UNL     1       1.174   0.220   0.555  1.00  0.00    -0.041 C 
HETATM    9  C8  UNL     1       0.188  -0.882   0.139  1.00  0.00    -0.061 C 
HETATM   10  C9  UNL     1      -1.251  -0.596   0.598  1.00  0.00    -0.065 C 
HETATM   11  C10 UNL     1      -1.919   0.525  -0.218  1.00  0.00    -0.065 C 
HETATM   12  C11 UNL     1      -3.369   0.790   0.220  1.00  0.00    -0.065 C 
HETATM   13  C12 UNL     1      -4.350  -0.272  -0.309  1.00  0.00    -0.065 C 
HETATM   14  C13 UNL     1      -5.795  -0.023   0.153  1.00  0.00    -0.065 C 
HETATM   15  C14 UNL     1      -6.449   1.169  -0.561  1.00  0.00    -0.069 C 
HETATM   16  C15 UNL     1      -7.921   1.297  -0.177  1.00  0.00    -0.077 C 
HETATM   17  C16 UNL     1       3.094   0.120  -1.079  1.00  0.00    -0.076 A 
HETATM   18  C17 UNL     1       4.390  -0.271  -1.426  1.00  0.00    -0.074 A 
HETATM   19  H1  UNL     1       8.353   0.373  -1.762  1.00  0.00     0.066 H 
HETATM   20  H2  UNL     1       8.523   1.172  -0.166  1.00  0.00     0.066 H 
HETATM   21  H3  UNL     1       6.921   1.189  -0.970  1.00  0.00     0.066 H 
HETATM   22  H4  UNL     1       6.765  -1.327  -1.969  1.00  0.00     0.081 H 
HETATM   23  H5  UNL     1       6.723  -2.449  -0.600  1.00  0.00     0.081 H 
HETATM   24  H6  UNL     1       5.277  -1.809   1.484  1.00  0.00     0.084 H 
HETATM   25  H7  UNL     1       2.992  -1.129   2.091  1.00  0.00     0.084 H 
HETATM   26  H8  UNL     1       0.920   1.174   0.048  1.00  0.00     0.040 H 
HETATM   27  H9  UNL     1       1.102   0.396   1.651  1.00  0.00     0.040 H 
HETATM   28  H10 UNL     1       0.212  -1.016  -0.965  1.00  0.00     0.033 H 
HETATM   29  H11 UNL     1       0.511  -1.841   0.601  1.00  0.00     0.033 H 
HETATM   30  H12 UNL     1      -1.257  -0.335   1.679  1.00  0.00     0.033 H 
HETATM   31  H13 UNL     1      -1.831  -1.534   0.478  1.00  0.00     0.033 H 
HETATM   32  H14 UNL     1      -1.349   1.466  -0.073  1.00  0.00     0.033 H 
HETATM   33  H15 UNL     1      -1.891   0.278  -1.302  1.00  0.00     0.033 H 
HETATM   34  H16 UNL     1      -3.662   1.783  -0.180  1.00  0.00     0.033 H 
HETATM   35  H17 UNL     1      -3.425   0.843   1.330  1.00  0.00     0.033 H 
HETATM   36  H18 UNL     1      -4.311  -0.305  -1.420  1.00  0.00     0.033 H 
HETATM   37  H19 UNL     1      -4.047  -1.272   0.066  1.00  0.00     0.033 H 
HETATM   38  H20 UNL     1      -6.386  -0.939  -0.067  1.00  0.00     0.033 H 
HETATM   39  H21 UNL     1      -5.817   0.134   1.254  1.00  0.00     0.033 H 
HETATM   40  H22 UNL     1      -5.933   2.112  -0.283  1.00  0.00     0.032 H 
HETATM   41  H23 UNL     1      -6.377   1.036  -1.662  1.00  0.00     0.032 H 
HETATM   42  H24 UNL     1      -8.479   0.384  -0.475  1.00  0.00     0.027 H 
HETATM   43  H25 UNL     1      -8.022   1.448   0.919  1.00  0.00     0.027 H 
HETATM   44  H26 UNL     1      -8.366   2.171  -0.698  1.00  0.00     0.027 H 
HETATM   45  H27 UNL     1       2.489   0.652  -1.804  1.00  0.00     0.084 H 
HETATM   46  H28 UNL     1       4.772  -0.027  -2.410  1.00  0.00     0.084 H 
TER      47      UNL     1 
ENDMDL
