REMARK FAKE_HEAD_ATOM=C1_O1
REMARK REAL_HEAD_ATOM=C2_C3
REMARK DUMMY_ATOM=C1_H1_H2_H3_O1
REMARK TORSION=C5_C6_C9_C10
MODEL 0
HETATM    1  C1  UNL     1       3.576   0.129  -0.718  1.00  0.00     0.004 C 
HETATM    2  O1  UNL     1       3.016  -0.941   0.011  1.00  0.00    -0.391 OA
HETATM    3  C2  UNL     1       2.227  -0.448   1.076  1.00  0.00     0.043 C 
HETATM    4  C3  UNL     1       0.816  -0.195   0.615  1.00  0.00    -0.035 A 
HETATM    5  C4  UNL     1       0.333   1.114   0.481  1.00  0.00    -0.074 A 
HETATM    6  C5  UNL     1      -0.971   1.343   0.033  1.00  0.00    -0.072 A 
HETATM    7  C6  UNL     1      -1.818   0.269  -0.287  1.00  0.00    -0.037 A 
HETATM    8  C7  UNL     1      -1.321  -1.045  -0.170  1.00  0.00    -0.072 A 
HETATM    9  C8  UNL     1      -0.016  -1.272   0.278  1.00  0.00    -0.074 A 
HETATM   10  C9  UNL     1      -3.190   0.567  -0.766  1.00  0.00    -0.082 C 
HETATM   11  C10 UNL     1      -4.182  -0.324  -0.805  1.00  0.00    -0.120 C 
HETATM   12  H1  UNL     1       4.137  -0.285  -1.580  1.00  0.00     0.066 H 
HETATM   13  H2  UNL     1       2.789   0.803  -1.122  1.00  0.00     0.066 H 
HETATM   14  H3  UNL     1       4.296   0.703  -0.093  1.00  0.00     0.066 H 
HETATM   15  H4  UNL     1       2.668   0.454   1.563  1.00  0.00     0.081 H 
HETATM   16  H5  UNL     1       2.199  -1.226   1.869  1.00  0.00     0.081 H 
HETATM   17  H6  UNL     1       0.966   1.959   0.721  1.00  0.00     0.084 H 
HETATM   18  H7  UNL     1      -1.321   2.364  -0.061  1.00  0.00     0.084 H 
HETATM   19  H8  UNL     1      -1.921  -1.902  -0.442  1.00  0.00     0.084 H 
HETATM   20  H9  UNL     1       0.349  -2.289   0.356  1.00  0.00     0.084 H 
HETATM   21  H10 UNL     1      -3.417   1.582  -1.072  1.00  0.00     0.083 H 
HETATM   22  H11 UNL     1      -5.159  -0.020  -1.157  1.00  0.00     0.066 H 
HETATM   23  H12 UNL     1      -4.061  -1.343  -0.471  1.00  0.00     0.066 H 
TER      24      UNL     1 
ENDMDL
