REMARK FAKE_HEAD_ATOM=C1_O1
REMARK REAL_HEAD_ATOM=C2_C3
REMARK DUMMY_ATOM=C1_H1_H2_H3_O1
REMARK TORSION=C7_C8_C9_C10
MODEL 0
HETATM    1  C1  UNL     1       3.083  -0.294   0.292  1.00  0.00     0.004 C 
HETATM    2  O1  UNL     1       2.027  -1.173  -0.030  1.00  0.00    -0.391 OA
HETATM    3  C2  UNL     1       1.234  -0.629  -1.068  1.00  0.00     0.043 C 
HETATM    4  C3  UNL     1       0.151   0.265  -0.503  1.00  0.00    -0.024 A 
HETATM    5  C4  UNL     1       0.282   1.657  -0.654  1.00  0.00    -0.074 A 
HETATM    6  C5  UNL     1      -0.687   2.522  -0.148  1.00  0.00    -0.082 A 
HETATM    7  C6  UNL     1      -1.795   2.013   0.525  1.00  0.00    -0.082 A 
HETATM    8  C7  UNL     1      -1.942   0.635   0.691  1.00  0.00    -0.072 A 
HETATM    9  C8  UNL     1      -0.981  -0.260   0.177  1.00  0.00    -0.029 A 
HETATM   10  C9  UNL     1      -1.138  -1.726   0.380  1.00  0.00    -0.081 C 
HETATM   11  C10 UNL     1      -2.324  -2.330   0.467  1.00  0.00    -0.120 C 
HETATM   12  H1  UNL     1       3.656  -0.726   1.138  1.00  0.00     0.066 H 
HETATM   13  H2  UNL     1       2.703   0.699   0.617  1.00  0.00     0.066 H 
HETATM   14  H3  UNL     1       3.784  -0.181  -0.565  1.00  0.00     0.066 H 
HETATM   15  H4  UNL     1       1.841  -0.099  -1.841  1.00  0.00     0.081 H 
HETATM   16  H5  UNL     1       0.755  -1.467  -1.616  1.00  0.00     0.081 H 
HETATM   17  H6  UNL     1       1.140   2.075  -1.167  1.00  0.00     0.084 H 
HETATM   18  H7  UNL     1      -0.574   3.592  -0.271  1.00  0.00     0.083 H 
HETATM   19  H8  UNL     1      -2.539   2.688   0.927  1.00  0.00     0.083 H 
HETATM   20  H9  UNL     1      -2.798   0.276   1.247  1.00  0.00     0.084 H 
HETATM   21  H10 UNL     1      -0.257  -2.351   0.426  1.00  0.00     0.083 H 
HETATM   22  H11 UNL     1      -2.372  -3.402   0.602  1.00  0.00     0.066 H 
HETATM   23  H12 UNL     1      -3.253  -1.785   0.374  1.00  0.00     0.066 H 
TER      24      UNL     1 
ENDMDL
