REMARK FAKE_HEAD_ATOM=C14_O1
REMARK REAL_HEAD_ATOM=C13_C12
REMARK DUMMY_ATOM=C14_H23_H24_H25_O1
REMARK TORSION=C11_C10_C9_C8
REMARK TORSION=C10_C9_C8_C7
REMARK TORSION=C9_C8_C7_C6
REMARK TORSION=C8_C7_C6_C5
REMARK TORSION=C7_C6_C5_C4
REMARK TORSION=C6_C5_C4_C3
REMARK TORSION=C5_C4_C3_C2
REMARK TORSION=C4_C3_C2_C1
MODEL 0
HETATM    1  C1  UNL     1      -6.318   2.544  -0.336  1.00  0.00    -0.077 C 
HETATM    2  C2  UNL     1      -6.195   1.025  -0.455  1.00  0.00    -0.069 C 
HETATM    3  C3  UNL     1      -4.964   0.467   0.275  1.00  0.00    -0.065 C 
HETATM    4  C4  UNL     1      -3.647   0.806  -0.446  1.00  0.00    -0.065 C 
HETATM    5  C5  UNL     1      -2.415   0.230   0.272  1.00  0.00    -0.065 C 
HETATM    6  C6  UNL     1      -2.241  -1.279   0.027  1.00  0.00    -0.065 C 
HETATM    7  C7  UNL     1      -1.030  -1.862   0.773  1.00  0.00    -0.065 C 
HETATM    8  C8  UNL     1       0.310  -1.439   0.152  1.00  0.00    -0.061 C 
HETATM    9  C9  UNL     1       1.482  -2.150   0.838  1.00  0.00    -0.041 C 
HETATM   10  C10 UNL     1       2.790  -1.717   0.233  1.00  0.00    -0.058 A 
HETATM   11  C11 UNL     1       3.456  -0.582   0.725  1.00  0.00    -0.069 A 
HETATM   12  C12 UNL     1       4.658  -0.153   0.142  1.00  0.00    -0.034 A 
HETATM   13  C13 UNL     1       5.353   1.076   0.667  1.00  0.00     0.043 C 
HETATM   14  O1  UNL     1       4.589   2.234   0.393  1.00  0.00    -0.391 OA
HETATM   15  C14 UNL     1       4.906   2.736  -0.888  1.00  0.00     0.004 C 
HETATM   16  C15 UNL     1       5.184  -0.857  -0.953  1.00  0.00    -0.075 A 
HETATM   17  C16 UNL     1       4.518  -1.978  -1.453  1.00  0.00    -0.082 A 
HETATM   18  C17 UNL     1       3.324  -2.405  -0.867  1.00  0.00    -0.077 A 
HETATM   19  H1  UNL     1      -6.290   2.855   0.730  1.00  0.00     0.027 H 
HETATM   20  H2  UNL     1      -7.286   2.871  -0.773  1.00  0.00     0.027 H 
HETATM   21  H3  UNL     1      -5.502   3.051  -0.891  1.00  0.00     0.027 H 
HETATM   22  H4  UNL     1      -7.105   0.568  -0.008  1.00  0.00     0.032 H 
HETATM   23  H5  UNL     1      -6.168   0.736  -1.528  1.00  0.00     0.032 H 
HETATM   24  H6  UNL     1      -5.080  -0.635   0.331  1.00  0.00     0.033 H 
HETATM   25  H7  UNL     1      -4.937   0.855   1.317  1.00  0.00     0.033 H 
HETATM   26  H8  UNL     1      -3.529   1.910  -0.480  1.00  0.00     0.033 H 
HETATM   27  H9  UNL     1      -3.680   0.438  -1.495  1.00  0.00     0.033 H 
HETATM   28  H10 UNL     1      -2.483   0.436   1.363  1.00  0.00     0.033 H 
HETATM   29  H11 UNL     1      -1.523   0.765  -0.116  1.00  0.00     0.033 H 
HETATM   30  H12 UNL     1      -3.143  -1.817   0.385  1.00  0.00     0.033 H 
HETATM   31  H13 UNL     1      -2.142  -1.478  -1.063  1.00  0.00     0.033 H 
HETATM   32  H14 UNL     1      -1.064  -1.559   1.843  1.00  0.00     0.033 H 
HETATM   33  H15 UNL     1      -1.106  -2.971   0.735  1.00  0.00     0.033 H 
HETATM   34  H16 UNL     1       0.313  -1.692  -0.931  1.00  0.00     0.033 H 
HETATM   35  H17 UNL     1       0.445  -0.342   0.261  1.00  0.00     0.033 H 
HETATM   36  H18 UNL     1       1.366  -3.251   0.735  1.00  0.00     0.040 H 
HETATM   37  H19 UNL     1       1.476  -1.918   1.926  1.00  0.00     0.040 H 
HETATM   38  H20 UNL     1       3.036  -0.030   1.559  1.00  0.00     0.085 H 
HETATM   39  H21 UNL     1       5.443   0.978   1.770  1.00  0.00     0.081 H 
HETATM   40  H22 UNL     1       6.401   1.148   0.290  1.00  0.00     0.081 H 
HETATM   41  H23 UNL     1       4.250   3.605  -1.099  1.00  0.00     0.066 H 
HETATM   42  H24 UNL     1       4.723   1.977  -1.680  1.00  0.00     0.066 H 
HETATM   43  H25 UNL     1       5.959   3.093  -0.926  1.00  0.00     0.066 H 
HETATM   44  H26 UNL     1       6.104  -0.533  -1.424  1.00  0.00     0.084 H 
HETATM   45  H27 UNL     1       4.924  -2.513  -2.302  1.00  0.00     0.083 H 
HETATM   46  H28 UNL     1       2.813  -3.270  -1.273  1.00  0.00     0.084 H 
TER      47      UNL     1 
ENDMDL
