REMARK FAKE_HEAD_ATOM=C1_O1
REMARK REAL_HEAD_ATOM=C2_C3
REMARK DUMMY_ATOM=C1_H1_H2_H3_O1
REMARK TORSION=C5_C6_C7_O2
MODEL 0
HETATM    1  C1  UNL     1       3.759   0.615  -0.018  1.00  0.00     0.004 C 
HETATM    2  O1  UNL     1       2.361   0.738   0.112  1.00  0.00    -0.391 OA
HETATM    3  C2  UNL     1       1.746  -0.474  -0.271  1.00  0.00     0.043 C 
HETATM    4  C3  UNL     1       0.259  -0.329  -0.128  1.00  0.00    -0.035 A 
HETATM    5  C4  UNL     1      -0.367  -0.627   1.093  1.00  0.00    -0.074 A 
HETATM    6  C5  UNL     1      -1.748  -0.457   1.238  1.00  0.00    -0.070 A 
HETATM    7  C6  UNL     1      -2.520   0.024   0.170  1.00  0.00     0.002 A 
HETATM    8  C7  UNL     1      -3.974   0.196   0.342  1.00  0.00     0.118 C 
HETATM    9  O2  UNL     1      -4.694   0.627  -0.597  1.00  0.00    -0.301 OA
HETATM   10  C8  UNL     1      -1.890   0.338  -1.046  1.00  0.00    -0.070 A 
HETATM   11  C9  UNL     1      -0.510   0.169  -1.191  1.00  0.00    -0.074 A 
HETATM   12  H1  UNL     1       4.050   0.419  -1.074  1.00  0.00     0.066 H 
HETATM   13  H2  UNL     1       4.158  -0.181   0.650  1.00  0.00     0.066 H 
HETATM   14  H3  UNL     1       4.228   1.573   0.286  1.00  0.00     0.066 H 
HETATM   15  H4  UNL     1       1.988  -0.723  -1.330  1.00  0.00     0.081 H 
HETATM   16  H5  UNL     1       2.094  -1.315   0.371  1.00  0.00     0.081 H 
HETATM   17  H6  UNL     1       0.213  -0.990   1.932  1.00  0.00     0.084 H 
HETATM   18  H7  UNL     1      -2.212  -0.699   2.186  1.00  0.00     0.085 H 
HETATM   19  H8  UNL     1      -4.440  -0.050   1.288  1.00  0.00     0.151 H 
HETATM   20  H9  UNL     1      -2.462   0.718  -1.884  1.00  0.00     0.085 H 
HETATM   21  H10 UNL     1      -0.041   0.426  -2.133  1.00  0.00     0.084 H 
TER      22      UNL     1 
ENDMDL
