REMARK FAKE_HEAD_ATOM=C1_O1
REMARK REAL_HEAD_ATOM=C2_C3
REMARK DUMMY_ATOM=C1_H1_H2_H3_O1
REMARK TORSION=C6_C7_C8_O2
MODEL 0
HETATM    1  C1  UNL     1       2.762   0.439   1.181  1.00  0.00     0.004 C 
HETATM    2  O1  UNL     1       2.499  -0.801   0.562  1.00  0.00    -0.391 OA
HETATM    3  C2  UNL     1       1.814  -0.604  -0.659  1.00  0.00     0.043 C 
HETATM    4  C3  UNL     1       0.327  -0.553  -0.428  1.00  0.00    -0.034 A 
HETATM    5  C4  UNL     1      -0.363  -1.714  -0.048  1.00  0.00    -0.075 A 
HETATM    6  C5  UNL     1      -1.739  -1.669   0.188  1.00  0.00    -0.082 A 
HETATM    7  C6  UNL     1      -2.436  -0.466   0.053  1.00  0.00    -0.070 A 
HETATM    8  C7  UNL     1      -1.760   0.707  -0.318  1.00  0.00     0.002 A 
HETATM    9  C8  UNL     1      -2.512   1.968  -0.450  1.00  0.00     0.118 C 
HETATM   10  O2  UNL     1      -1.935   3.038  -0.780  1.00  0.00    -0.301 OA
HETATM   11  C9  UNL     1      -0.375   0.657  -0.556  1.00  0.00    -0.062 A 
HETATM   12  H1  UNL     1       1.824   1.006   1.372  1.00  0.00     0.066 H 
HETATM   13  H2  UNL     1       3.244   0.250   2.162  1.00  0.00     0.066 H 
HETATM   14  H3  UNL     1       3.466   1.047   0.571  1.00  0.00     0.066 H 
HETATM   15  H4  UNL     1       2.033  -1.471  -1.319  1.00  0.00     0.081 H 
HETATM   16  H5  UNL     1       2.173   0.291  -1.220  1.00  0.00     0.081 H 
HETATM   17  H6  UNL     1       0.165  -2.652   0.065  1.00  0.00     0.084 H 
HETATM   18  H7  UNL     1      -2.266  -2.569   0.479  1.00  0.00     0.083 H 
HETATM   19  H8  UNL     1      -3.503  -0.449   0.241  1.00  0.00     0.084 H 
HETATM   20  H9  UNL     1      -3.578   1.985  -0.261  1.00  0.00     0.151 H 
HETATM   21  H10 UNL     1       0.160   1.557  -0.837  1.00  0.00     0.085 H 
TER      22      UNL     1 
ENDMDL
