REMARK FAKE_HEAD_ATOM=C9_O2
REMARK REAL_HEAD_ATOM=C8_C5
REMARK DUMMY_ATOM=C9_H8_H9_H10_O2
REMARK TORSION=C3_C2_C1_O1
MODEL 0
HETATM    1  O1  UNL     1      -3.922   0.368   2.123  1.00  0.00    -0.301 OA
HETATM    2  C1  UNL     1      -3.548   0.646   0.952  1.00  0.00     0.118 C 
HETATM    3  C2  UNL     1      -2.215   0.248   0.464  1.00  0.00     0.002 A 
HETATM    4  C3  UNL     1      -1.831   0.574  -0.845  1.00  0.00    -0.070 A 
HETATM    5  C4  UNL     1      -0.570   0.206  -1.325  1.00  0.00    -0.074 A 
HETATM    6  C5  UNL     1       0.322  -0.500  -0.504  1.00  0.00    -0.035 A 
HETATM    7  C6  UNL     1      -0.058  -0.822   0.808  1.00  0.00    -0.074 A 
HETATM    8  C7  UNL     1      -1.319  -0.453   1.289  1.00  0.00    -0.070 A 
HETATM    9  C8  UNL     1       1.685  -0.876  -1.020  1.00  0.00     0.043 C 
HETATM   10  O2  UNL     1       2.488   0.277  -1.186  1.00  0.00    -0.391 OA
HETATM   11  C9  UNL     1       3.160   0.581   0.017  1.00  0.00     0.004 C 
HETATM   12  H1  UNL     1      -4.224   1.186   0.302  1.00  0.00     0.151 H 
HETATM   13  H2  UNL     1      -2.505   1.117  -1.497  1.00  0.00     0.085 H 
HETATM   14  H3  UNL     1      -0.288   0.470  -2.337  1.00  0.00     0.084 H 
HETATM   15  H4  UNL     1       0.621  -1.356   1.461  1.00  0.00     0.084 H 
HETATM   16  H5  UNL     1      -1.590  -0.714   2.304  1.00  0.00     0.085 H 
HETATM   17  H6  UNL     1       1.561  -1.352  -2.016  1.00  0.00     0.081 H 
HETATM   18  H7  UNL     1       2.167  -1.652  -0.380  1.00  0.00     0.081 H 
HETATM   19  H8  UNL     1       3.889  -0.217   0.279  1.00  0.00     0.066 H 
HETATM   20  H9  UNL     1       3.730   1.522  -0.124  1.00  0.00     0.066 H 
HETATM   21  H10 UNL     1       2.445   0.745   0.854  1.00  0.00     0.066 H 
TER      22      UNL     1 
ENDMDL
