REMARK FAKE_HEAD_ATOM=C1_O1
REMARK REAL_HEAD_ATOM=C2_C3
REMARK DUMMY_ATOM=C1_H1_H2_H3_O1
REMARK TORSION=C7_C8_N1_C9
MODEL 0
HETATM    1  C1  UNL     1       3.162  -0.660   0.836  1.00  0.00     0.004 C 
HETATM    2  O1  UNL     1       2.689  -0.853  -0.480  1.00  0.00    -0.391 OA
HETATM    3  C2  UNL     1       1.305  -1.156  -0.465  1.00  0.00     0.045 C 
HETATM    4  C3  UNL     1       0.436   0.090  -0.491  1.00  0.00    -0.008 A 
HETATM    5  C4  UNL     1       0.994   1.331  -0.865  1.00  0.00    -0.073 A 
HETATM    6  C5  UNL     1       0.218   2.489  -0.874  1.00  0.00    -0.082 A 
HETATM    7  C6  UNL     1      -1.128   2.431  -0.527  1.00  0.00    -0.081 A 
HETATM    8  C7  UNL     1      -1.711   1.210  -0.189  1.00  0.00    -0.057 A 
HETATM    9  C8  UNL     1      -0.951   0.022  -0.183  1.00  0.00     0.036 A 
HETATM   10  N1  UNL     1      -1.586  -1.244   0.105  1.00  0.00    -0.394 N 
HETATM   11  C9  UNL     1      -2.893  -1.359   0.744  1.00  0.00    -0.021 C 
HETATM   12  H1  UNL     1       3.153  -1.617   1.402  1.00  0.00     0.066 H 
HETATM   13  H2  UNL     1       4.213  -0.308   0.786  1.00  0.00     0.066 H 
HETATM   14  H3  UNL     1       2.573   0.115   1.375  1.00  0.00     0.066 H 
HETATM   15  H4  UNL     1       1.078  -1.743  -1.379  1.00  0.00     0.081 H 
HETATM   16  H5  UNL     1       1.039  -1.806   0.402  1.00  0.00     0.081 H 
HETATM   17  H6  UNL     1       2.036   1.412  -1.146  1.00  0.00     0.084 H 
HETATM   18  H7  UNL     1       0.663   3.436  -1.152  1.00  0.00     0.083 H 
HETATM   19  H8  UNL     1      -1.727   3.332  -0.535  1.00  0.00     0.083 H 
HETATM   20  H9  UNL     1      -2.766   1.200   0.049  1.00  0.00     0.086 H 
HETATM   21  H10 UNL     1      -1.109  -2.138  -0.144  1.00  0.00     0.159 HD
HETATM   22  H11 UNL     1      -3.114  -2.426   0.959  1.00  0.00     0.056 H 
HETATM   23  H12 UNL     1      -2.897  -0.796   1.701  1.00  0.00     0.056 H 
HETATM   24  H13 UNL     1      -3.682  -0.969   0.068  1.00  0.00     0.056 H 
TER      25      UNL     1 
ENDMDL
