REMARK FAKE_HEAD_ATOM=C1_O1
REMARK REAL_HEAD_ATOM=C2_C3
REMARK DUMMY_ATOM=C1_H1_H2_H3_O1
MODEL 0
HETATM    1  C1  UNL     1       2.717   0.027   0.584  1.00  0.00     0.004 C 
HETATM    2  O1  UNL     1       2.185   0.373  -0.676  1.00  0.00    -0.391 OA
HETATM    3  C2  UNL     1       1.202  -0.566  -1.068  1.00  0.00     0.044 C 
HETATM    4  C3  UNL     1      -0.148  -0.193  -0.501  1.00  0.00    -0.013 A 
HETATM    5  C4  UNL     1      -0.794   0.951  -1.001  1.00  0.00    -0.073 A 
HETATM    6  C5  UNL     1      -2.035   1.345  -0.494  1.00  0.00    -0.082 A 
HETATM    7  C6  UNL     1      -2.642   0.605   0.521  1.00  0.00    -0.081 A 
HETATM    8  C7  UNL     1      -2.009  -0.530   1.033  1.00  0.00    -0.061 A 
HETATM    9  C8  UNL     1      -0.765  -0.935   0.533  1.00  0.00     0.042 A 
HETATM   10 CL1  UNL     1      -0.020  -2.368   1.235  1.00  0.00    -0.084 Cl
HETATM   11  H1  UNL     1       3.471   0.788   0.870  1.00  0.00     0.066 H 
HETATM   12  H2  UNL     1       1.930   0.025   1.369  1.00  0.00     0.066 H 
HETATM   13  H3  UNL     1       3.234  -0.958   0.546  1.00  0.00     0.066 H 
HETATM   14  H4  UNL     1       1.493  -1.615  -0.839  1.00  0.00     0.081 H 
HETATM   15  H5  UNL     1       1.129  -0.534  -2.176  1.00  0.00     0.081 H 
HETATM   16  H6  UNL     1      -0.334   1.540  -1.785  1.00  0.00     0.084 H 
HETATM   17  H7  UNL     1      -2.525   2.226  -0.888  1.00  0.00     0.083 H 
HETATM   18  H8  UNL     1      -3.603   0.911   0.913  1.00  0.00     0.083 H 
HETATM   19  H9  UNL     1      -2.487  -1.094   1.824  1.00  0.00     0.086 H 
TER      20      UNL     1 
ENDMDL
