REMARK FAKE_HEAD_ATOM=C1_O1
REMARK REAL_HEAD_ATOM=C2_C3
REMARK DUMMY_ATOM=C1_H1_H2_H3_O1
REMARK TORSION=C5_C6_N1_C9
MODEL 0
HETATM    1  C1  UNL     1      -3.637  -0.462   1.062  1.00  0.00     0.004 C 
HETATM    2  O1  UNL     1      -3.225  -0.567  -0.283  1.00  0.00    -0.391 OA
HETATM    3  C2  UNL     1      -2.521   0.597  -0.672  1.00  0.00     0.043 C 
HETATM    4  C3  UNL     1      -1.057   0.461  -0.348  1.00  0.00    -0.035 A 
HETATM    5  C4  UNL     1      -0.479   1.223   0.678  1.00  0.00    -0.073 A 
HETATM    6  C5  UNL     1       0.876   1.078   0.987  1.00  0.00    -0.057 A 
HETATM    7  C6  UNL     1       1.677   0.166   0.280  1.00  0.00     0.027 A 
HETATM    8  C7  UNL     1       1.092  -0.602  -0.745  1.00  0.00    -0.057 A 
HETATM    9  C8  UNL     1      -0.264  -0.456  -1.053  1.00  0.00    -0.073 A 
HETATM   10  N1  UNL     1       3.069   0.039   0.622  1.00  0.00    -0.394 N 
HETATM   11  C9  UNL     1       3.984  -0.877  -0.050  1.00  0.00    -0.021 C 
HETATM   12  H1  UNL     1      -2.770  -0.308   1.743  1.00  0.00     0.066 H 
HETATM   13  H2  UNL     1      -4.380   0.356   1.188  1.00  0.00     0.066 H 
HETATM   14  H3  UNL     1      -4.129  -1.411   1.356  1.00  0.00     0.066 H 
HETATM   15  H4  UNL     1      -2.952   1.531  -0.240  1.00  0.00     0.081 H 
HETATM   16  H5  UNL     1      -2.624   0.707  -1.773  1.00  0.00     0.081 H 
HETATM   17  H6  UNL     1      -1.078   1.928   1.241  1.00  0.00     0.084 H 
HETATM   18  H7  UNL     1       1.303   1.676   1.782  1.00  0.00     0.086 H 
HETATM   19  H8  UNL     1       1.675  -1.316  -1.310  1.00  0.00     0.086 H 
HETATM   20  H9  UNL     1      -0.697  -1.059  -1.842  1.00  0.00     0.084 H 
HETATM   21  H10 UNL     1       3.457   0.631   1.392  1.00  0.00     0.159 HD
HETATM   22  H11 UNL     1       4.046  -0.626  -1.130  1.00  0.00     0.056 H 
HETATM   23  H12 UNL     1       3.633  -1.923   0.076  1.00  0.00     0.056 H 
HETATM   24  H13 UNL     1       4.999  -0.789   0.393  1.00  0.00     0.056 H 
TER      25      UNL     1 
ENDMDL
