REMARK FAKE_HEAD_ATOM=C1_O1
REMARK REAL_HEAD_ATOM=C2_C3
REMARK DUMMY_ATOM=C1_H1_H2_H3_O1
REMARK TORSION=C7_C8_C9_C10
MODEL 0
HETATM    1  C1  UNL     1      -3.346  -0.116   0.618  1.00  0.00     0.004 C 
HETATM    2  O1  UNL     1      -1.944  -0.199   0.740  1.00  0.00    -0.391 OA
HETATM    3  C2  UNL     1      -1.419  -0.928  -0.350  1.00  0.00     0.043 C 
HETATM    4  C3  UNL     1       0.090  -0.909  -0.283  1.00  0.00    -0.021 A 
HETATM    5  C4  UNL     1       0.774  -2.135  -0.171  1.00  0.00    -0.074 A 
HETATM    6  C5  UNL     1       2.164  -2.170  -0.063  1.00  0.00    -0.082 A 
HETATM    7  C6  UNL     1       2.894  -0.985  -0.061  1.00  0.00    -0.082 A 
HETATM    8  C7  UNL     1       2.239   0.241  -0.173  1.00  0.00    -0.069 A 
HETATM    9  C8  UNL     1       0.837   0.303  -0.292  1.00  0.00     0.018 A 
HETATM   10  C9  UNL     1       0.190   1.637  -0.419  1.00  0.00     0.156 C 
HETATM   11  C10 UNL     1       0.729   2.832   0.305  1.00  0.00    -0.017 C 
HETATM   12  O2  UNL     1      -0.793   1.794  -1.191  1.00  0.00    -0.293 OA
HETATM   13  H1  UNL     1      -3.813  -1.126   0.616  1.00  0.00     0.066 H 
HETATM   14  H2  UNL     1      -3.744   0.436   1.494  1.00  0.00     0.066 H 
HETATM   15  H3  UNL     1      -3.636   0.449  -0.296  1.00  0.00     0.066 H 
HETATM   16  H4  UNL     1      -1.794  -1.977  -0.314  1.00  0.00     0.081 H 
HETATM   17  H5  UNL     1      -1.736  -0.499  -1.327  1.00  0.00     0.081 H 
HETATM   18  H6  UNL     1       0.230  -3.072  -0.160  1.00  0.00     0.084 H 
HETATM   19  H7  UNL     1       2.676  -3.120   0.024  1.00  0.00     0.083 H 
HETATM   20  H8  UNL     1       3.973  -1.016   0.023  1.00  0.00     0.083 H 
HETATM   21  H9  UNL     1       2.836   1.145  -0.183  1.00  0.00     0.085 H 
HETATM   22  H10 UNL     1      -0.080   3.573   0.476  1.00  0.00     0.038 H 
HETATM   23  H11 UNL     1       1.528   3.307  -0.303  1.00  0.00     0.038 H 
HETATM   24  H12 UNL     1       1.143   2.533   1.291  1.00  0.00     0.038 H 
TER      25      UNL     1 
ENDMDL
