REMARK FAKE_HEAD_ATOM=C9_O1
REMARK REAL_HEAD_ATOM=C8_C7
REMARK DUMMY_ATOM=C9_H10_H11_H12_O1
MODEL 0
HETATM    1  C1  UNL     1      -0.965  -1.875   0.366  1.00  0.00    -0.051 C 
HETATM    2  C2  UNL     1      -1.008  -0.397   0.078  1.00  0.00    -0.054 A 
HETATM    3  C3  UNL     1      -2.135   0.341   0.482  1.00  0.00    -0.077 A 
HETATM    4  C4  UNL     1      -2.218   1.711   0.226  1.00  0.00    -0.082 A 
HETATM    5  C5  UNL     1      -1.179   2.362  -0.437  1.00  0.00    -0.082 A 
HETATM    6  C6  UNL     1      -0.055   1.646  -0.849  1.00  0.00    -0.074 A 
HETATM    7  C7  UNL     1       0.048   0.266  -0.602  1.00  0.00    -0.029 A 
HETATM    8  C8  UNL     1       1.301  -0.448  -1.065  1.00  0.00     0.043 C 
HETATM    9  O1  UNL     1       2.441   0.051  -0.392  1.00  0.00    -0.391 OA
HETATM   10  C9  UNL     1       2.585  -0.584   0.860  1.00  0.00     0.004 C 
HETATM   11  H1  UNL     1      -0.057  -2.124   0.953  1.00  0.00     0.033 H 
HETATM   12  H2  UNL     1      -1.847  -2.205   0.955  1.00  0.00     0.033 H 
HETATM   13  H3  UNL     1      -0.960  -2.443  -0.589  1.00  0.00     0.033 H 
HETATM   14  H4  UNL     1      -2.956  -0.143   0.997  1.00  0.00     0.084 H 
HETATM   15  H5  UNL     1      -3.090   2.268   0.543  1.00  0.00     0.083 H 
HETATM   16  H6  UNL     1      -1.246   3.425  -0.633  1.00  0.00     0.083 H 
HETATM   17  H7  UNL     1       0.743   2.170  -1.362  1.00  0.00     0.084 H 
HETATM   18  H8  UNL     1       1.429  -0.235  -2.147  1.00  0.00     0.081 H 
HETATM   19  H9  UNL     1       1.228  -1.556  -1.007  1.00  0.00     0.081 H 
HETATM   20  H10 UNL     1       2.743  -1.679   0.741  1.00  0.00     0.066 H 
HETATM   21  H11 UNL     1       3.483  -0.171   1.363  1.00  0.00     0.066 H 
HETATM   22  H12 UNL     1       1.711  -0.383   1.517  1.00  0.00     0.066 H 
TER      23      UNL     1 
ENDMDL
