REMARK FAKE_HEAD_ATOM=C8_O1
REMARK REAL_HEAD_ATOM=C7_C4
REMARK DUMMY_ATOM=C8_H7_H8_H9_O1
MODEL 0
HETATM    1 CL1  UNL     1       4.680  -0.356  -0.506  1.00  0.00    -0.084 Cl
HETATM    2  C1  UNL     1       2.967  -0.184  -0.169  1.00  0.00     0.034 A 
HETATM    3  C2  UNL     1       2.247  -1.257   0.368  1.00  0.00    -0.061 A 
HETATM    4  C3  UNL     1       0.881  -1.121   0.635  1.00  0.00    -0.073 A 
HETATM    5  C4  UNL     1       0.227   0.094   0.378  1.00  0.00    -0.035 A 
HETATM    6  C5  UNL     1       0.951   1.162  -0.178  1.00  0.00    -0.073 A 
HETATM    7  C6  UNL     1       2.317   1.024  -0.444  1.00  0.00    -0.061 A 
HETATM    8  C7  UNL     1      -1.248   0.228   0.628  1.00  0.00     0.043 C 
HETATM    9  O1  UNL     1      -1.944  -0.165  -0.535  1.00  0.00    -0.391 OA
HETATM   10  C8  UNL     1      -3.331  -0.044  -0.314  1.00  0.00     0.004 C 
HETATM   11  H1  UNL     1       2.744  -2.196   0.575  1.00  0.00     0.086 H 
HETATM   12  H2  UNL     1       0.335  -1.964   1.042  1.00  0.00     0.084 H 
HETATM   13  H3  UNL     1       0.458   2.099  -0.405  1.00  0.00     0.084 H 
HETATM   14  H4  UNL     1       2.868   1.854  -0.867  1.00  0.00     0.086 H 
HETATM   15  H5  UNL     1      -1.479   1.287   0.890  1.00  0.00     0.081 H 
HETATM   16  H6  UNL     1      -1.531  -0.413   1.495  1.00  0.00     0.081 H 
HETATM   17  H7  UNL     1      -3.865  -0.356  -1.235  1.00  0.00     0.066 H 
HETATM   18  H8  UNL     1      -3.615   1.011  -0.102  1.00  0.00     0.066 H 
HETATM   19  H9  UNL     1      -3.668  -0.711   0.511  1.00  0.00     0.066 H 
TER      20      UNL     1 
ENDMDL
