REMARK FAKE_HEAD_ATOM=C1_O1
REMARK REAL_HEAD_ATOM=C2_C3
REMARK DUMMY_ATOM=C1_H1_H2_H3_O1
MODEL 0
HETATM    1  C1  UNL     1      -3.300  -0.406  -0.428  1.00  0.00     0.004 C 
HETATM    2  O1  UNL     1      -1.908  -0.476  -0.638  1.00  0.00    -0.391 OA
HETATM    3  C2  UNL     1      -1.247   0.301   0.337  1.00  0.00     0.043 C 
HETATM    4  C3  UNL     1       0.234   0.217   0.103  1.00  0.00    -0.033 A 
HETATM    5  C4  UNL     1       0.986  -0.815   0.690  1.00  0.00    -0.054 A 
HETATM    6  C5  UNL     1       2.360  -0.915   0.441  1.00  0.00     0.034 A 
HETATM    7 CL1  UNL     1       3.295  -2.199   1.185  1.00  0.00    -0.084 Cl
HETATM    8  C6  UNL     1       2.987   0.007  -0.404  1.00  0.00    -0.062 A 
HETATM    9  C7  UNL     1       2.240   1.024  -1.005  1.00  0.00    -0.081 A 
HETATM   10  C8  UNL     1       0.868   1.127  -0.759  1.00  0.00    -0.075 A 
HETATM   11  H1  UNL     1      -3.805  -1.020  -1.201  1.00  0.00     0.066 H 
HETATM   12  H2  UNL     1      -3.579  -0.821   0.566  1.00  0.00     0.066 H 
HETATM   13  H3  UNL     1      -3.672   0.638  -0.532  1.00  0.00     0.066 H 
HETATM   14  H4  UNL     1      -1.565   1.368   0.277  1.00  0.00     0.081 H 
HETATM   15  H5  UNL     1      -1.475  -0.071   1.363  1.00  0.00     0.081 H 
HETATM   16  H6  UNL     1       0.506  -1.538   1.338  1.00  0.00     0.087 H 
HETATM   17  H7  UNL     1       4.049  -0.068  -0.600  1.00  0.00     0.086 H 
HETATM   18  H8  UNL     1       2.725   1.732  -1.665  1.00  0.00     0.083 H 
HETATM   19  H9  UNL     1       0.300   1.914  -1.239  1.00  0.00     0.084 H 
TER      20      UNL     1 
ENDMDL
