REMARK FAKE_HEAD_ATOM=C7_O2
REMARK REAL_HEAD_ATOM=C6_C5
REMARK DUMMY_ATOM=C7_H5_H6_H7_O2
REMARK TORSION=C3_C2_C1_O1
MODEL 0
HETATM    1  O1  UNL     1       3.504   0.312  -1.984  1.00  0.00    -0.293 OA
HETATM    2  C1  UNL     1       3.055   0.292  -0.805  1.00  0.00     0.155 C 
HETATM    3  C2  UNL     1       1.627  -0.051  -0.565  1.00  0.00     0.009 A 
HETATM    4  C3  UNL     1       1.089  -0.082   0.737  1.00  0.00    -0.069 A 
HETATM    5  C4  UNL     1      -0.255  -0.407   0.944  1.00  0.00    -0.074 A 
HETATM    6  C5  UNL     1      -1.087  -0.711  -0.142  1.00  0.00    -0.035 A 
HETATM    7  C6  UNL     1      -2.540  -1.040   0.075  1.00  0.00     0.043 C 
HETATM    8  O2  UNL     1      -3.363   0.004  -0.409  1.00  0.00    -0.391 OA
HETATM    9  C7  UNL     1      -3.558   0.977   0.594  1.00  0.00     0.004 C 
HETATM   10  C8  UNL     1      -0.561  -0.676  -1.440  1.00  0.00    -0.074 A 
HETATM   11  C9  UNL     1       0.782  -0.352  -1.650  1.00  0.00    -0.069 A 
HETATM   12  C10 UNL     1       3.991   0.620   0.319  1.00  0.00    -0.017 C 
HETATM   13  H1  UNL     1       1.699   0.146   1.600  1.00  0.00     0.085 H 
HETATM   14  H2  UNL     1      -0.646  -0.417   1.954  1.00  0.00     0.084 H 
HETATM   15  H3  UNL     1      -2.778  -1.959  -0.503  1.00  0.00     0.081 H 
HETATM   16  H4  UNL     1      -2.748  -1.299   1.140  1.00  0.00     0.081 H 
HETATM   17  H5  UNL     1      -2.591   1.400   0.945  1.00  0.00     0.066 H 
HETATM   18  H6  UNL     1      -4.152   1.810   0.167  1.00  0.00     0.066 H 
HETATM   19  H7  UNL     1      -4.132   0.557   1.449  1.00  0.00     0.066 H 
HETATM   20  H8  UNL     1      -1.193  -0.899  -2.291  1.00  0.00     0.084 H 
HETATM   21  H9  UNL     1       1.158  -0.336  -2.666  1.00  0.00     0.085 H 
HETATM   22  H10 UNL     1       4.066  -0.244   1.012  1.00  0.00     0.038 H 
HETATM   23  H11 UNL     1       5.006   0.845  -0.072  1.00  0.00     0.038 H 
HETATM   24  H12 UNL     1       3.622   1.511   0.869  1.00  0.00     0.038 H 
TER      25      UNL     1 
ENDMDL
