REMARK FAKE_HEAD_ATOM=C1_O1
REMARK REAL_HEAD_ATOM=C2_C3
REMARK DUMMY_ATOM=C1_H1_H2_H3_O1
REMARK TORSION=C6_C7_N1_C8
MODEL 0
HETATM    1  C1  UNL     1      -4.198   0.012  -0.565  1.00  0.00     0.004 C 
HETATM    2  O1  UNL     1      -2.865   0.442  -0.405  1.00  0.00    -0.391 OA
HETATM    3  C2  UNL     1      -2.173  -0.472   0.418  1.00  0.00     0.043 C 
HETATM    4  C3  UNL     1      -0.755  -0.004   0.578  1.00  0.00    -0.033 A 
HETATM    5  C4  UNL     1      -0.414   0.872   1.620  1.00  0.00    -0.075 A 
HETATM    6  C5  UNL     1       0.897   1.336   1.746  1.00  0.00    -0.080 A 
HETATM    7  C6  UNL     1       1.875   0.942   0.829  1.00  0.00    -0.058 A 
HETATM    8  C7  UNL     1       1.546   0.078  -0.233  1.00  0.00     0.028 A 
HETATM    9  N1  UNL     1       2.528  -0.339  -1.200  1.00  0.00    -0.394 N 
HETATM   10  C8  UNL     1       3.924   0.084  -1.167  1.00  0.00    -0.021 C 
HETATM   11  C9  UNL     1       0.225  -0.384  -0.352  1.00  0.00    -0.049 A 
HETATM   12  H1  UNL     1      -4.731  -0.020   0.411  1.00  0.00     0.066 H 
HETATM   13  H2  UNL     1      -4.244  -0.981  -1.066  1.00  0.00     0.066 H 
HETATM   14  H3  UNL     1      -4.728   0.739  -1.213  1.00  0.00     0.066 H 
HETATM   15  H4  UNL     1      -2.651  -0.541   1.423  1.00  0.00     0.081 H 
HETATM   16  H5  UNL     1      -2.171  -1.491  -0.034  1.00  0.00     0.081 H 
HETATM   17  H6  UNL     1      -1.162   1.195   2.333  1.00  0.00     0.084 H 
HETATM   18  H7  UNL     1       1.155   2.007   2.555  1.00  0.00     0.083 H 
HETATM   19  H8  UNL     1       2.881   1.319   0.954  1.00  0.00     0.086 H 
HETATM   20  H9  UNL     1       2.236  -0.981  -1.972  1.00  0.00     0.159 HD
HETATM   21  H10 UNL     1       4.476  -0.371  -2.016  1.00  0.00     0.056 H 
HETATM   22  H11 UNL     1       4.397  -0.246  -0.219  1.00  0.00     0.056 H 
HETATM   23  H12 UNL     1       3.986   1.189  -1.256  1.00  0.00     0.056 H 
HETATM   24  H13 UNL     1      -0.040  -1.041  -1.172  1.00  0.00     0.087 H 
TER      25      UNL     1 
ENDMDL
