REMARK FAKE_HEAD_ATOM=C6_O1
REMARK REAL_HEAD_ATOM=C5_C4
REMARK DUMMY_ATOM=C6_H7_H8_H9_O1
MODEL 0
HETATM    1  C1  UNL     1      -3.112  -1.216  -0.115  1.00  0.00    -0.051 C 
HETATM    2  C2  UNL     1      -2.015  -0.204   0.036  1.00  0.00    -0.061 A 
HETATM    3  C3  UNL     1      -0.671  -0.598  -0.064  1.00  0.00    -0.069 A 
HETATM    4  C4  UNL     1       0.359   0.353   0.033  1.00  0.00    -0.034 A 
HETATM    5  C5  UNL     1       1.796  -0.079  -0.026  1.00  0.00     0.043 C 
HETATM    6  O1  UNL     1       2.227  -0.403   1.278  1.00  0.00    -0.391 OA
HETATM    7  C6  UNL     1       3.576  -0.813   1.236  1.00  0.00     0.004 C 
HETATM    8  C7  UNL     1       0.033   1.702   0.248  1.00  0.00    -0.075 A 
HETATM    9  C8  UNL     1      -1.304   2.099   0.329  1.00  0.00    -0.082 A 
HETATM   10  C9  UNL     1      -2.325   1.153   0.215  1.00  0.00    -0.077 A 
HETATM   11  H1  UNL     1      -3.375  -1.316  -1.189  1.00  0.00     0.033 H 
HETATM   12  H2  UNL     1      -2.787  -2.205   0.273  1.00  0.00     0.033 H 
HETATM   13  H3  UNL     1      -4.015  -0.904   0.452  1.00  0.00     0.033 H 
HETATM   14  H4  UNL     1      -0.426  -1.642  -0.215  1.00  0.00     0.085 H 
HETATM   15  H5  UNL     1       2.409   0.749  -0.452  1.00  0.00     0.081 H 
HETATM   16  H6  UNL     1       1.884  -0.959  -0.704  1.00  0.00     0.081 H 
HETATM   17  H7  UNL     1       3.901  -1.063   2.267  1.00  0.00     0.066 H 
HETATM   18  H8  UNL     1       3.701  -1.726   0.613  1.00  0.00     0.066 H 
HETATM   19  H9  UNL     1       4.234   0.005   0.866  1.00  0.00     0.066 H 
HETATM   20  H10 UNL     1       0.814   2.446   0.347  1.00  0.00     0.084 H 
HETATM   21  H11 UNL     1      -1.549   3.142   0.481  1.00  0.00     0.083 H 
HETATM   22  H12 UNL     1      -3.357   1.477   0.272  1.00  0.00     0.084 H 
TER      23      UNL     1 
ENDMDL
