REMARK FAKE_HEAD_ATOM=C1_O1
REMARK REAL_HEAD_ATOM=C2_C3
REMARK DUMMY_ATOM=C1_H1_H2_H3_O1
REMARK TORSION=C3_C4_C9_O2
MODEL 0
HETATM    1  C1  UNL     1       3.379  -0.855   0.135  1.00  0.00     0.004 C 
HETATM    2  O1  UNL     1       1.991  -1.097   0.177  1.00  0.00    -0.391 OA
HETATM    3  C2  UNL     1       1.295   0.118  -0.022  1.00  0.00     0.043 C 
HETATM    4  C3  UNL     1      -0.209  -0.083   0.014  1.00  0.00    -0.021 A 
HETATM    5  C4  UNL     1      -1.093   1.018  -0.165  1.00  0.00     0.010 A 
HETATM    6  C5  UNL     1      -2.483   0.797  -0.127  1.00  0.00    -0.070 A 
HETATM    7  C6  UNL     1      -2.998  -0.481   0.084  1.00  0.00    -0.082 A 
HETATM    8  C7  UNL     1      -2.136  -1.560   0.260  1.00  0.00    -0.082 A 
HETATM    9  C8  UNL     1      -0.755  -1.367   0.226  1.00  0.00    -0.074 A 
HETATM   10  C9  UNL     1      -0.587   2.395  -0.392  1.00  0.00     0.119 C 
HETATM   11  O2  UNL     1      -1.382   3.360  -0.550  1.00  0.00    -0.301 OA
HETATM   12  H1  UNL     1       3.693  -0.162   0.947  1.00  0.00     0.066 H 
HETATM   13  H2  UNL     1       3.690  -0.458  -0.857  1.00  0.00     0.066 H 
HETATM   14  H3  UNL     1       3.910  -1.817   0.292  1.00  0.00     0.066 H 
HETATM   15  H4  UNL     1       1.561   0.843   0.782  1.00  0.00     0.081 H 
HETATM   16  H5  UNL     1       1.558   0.548  -1.015  1.00  0.00     0.081 H 
HETATM   17  H6  UNL     1      -3.179   1.617  -0.260  1.00  0.00     0.085 H 
HETATM   18  H7  UNL     1      -4.069  -0.635   0.111  1.00  0.00     0.083 H 
HETATM   19  H8  UNL     1      -2.540  -2.551   0.423  1.00  0.00     0.083 H 
HETATM   20  H9  UNL     1      -0.121  -2.232   0.367  1.00  0.00     0.084 H 
HETATM   21  H10 UNL     1       0.473   2.601  -0.428  1.00  0.00     0.151 H 
TER      22      UNL     1 
ENDMDL
