REMARK FAKE_HEAD_ATOM=C1_O1
REMARK REAL_HEAD_ATOM=C2_C3
REMARK DUMMY_ATOM=C1_H1_H2_H3_O1
REMARK TORSION=C5_C6_C7_C8
REMARK TORSION=C6_C7_C8_N1
MODEL 0
HETATM    1  C1  UNL     1       4.426   0.172  -0.925  1.00  0.00     0.004 C 
HETATM    2  O1  UNL     1       4.074   0.211   0.441  1.00  0.00    -0.391 OA
HETATM    3  C2  UNL     1       3.193  -0.851   0.749  1.00  0.00     0.043 C 
HETATM    4  C3  UNL     1       1.765  -0.442   0.500  1.00  0.00    -0.035 A 
HETATM    5  C4  UNL     1       1.039  -0.997  -0.565  1.00  0.00    -0.074 A 
HETATM    6  C5  UNL     1      -0.280  -0.599  -0.802  1.00  0.00    -0.076 A 
HETATM    7  C6  UNL     1      -0.886   0.369   0.014  1.00  0.00    -0.057 A 
HETATM    8  C7  UNL     1      -2.317   0.773  -0.221  1.00  0.00    -0.019 C 
HETATM    9  C8  UNL     1      -3.270  -0.133   0.568  1.00  0.00     0.083 C 
HETATM   10  N1  UNL     1      -4.663   0.253   0.346  1.00  0.00    -0.079 N 
HETATM   11  C9  UNL     1      -0.161   0.919   1.083  1.00  0.00    -0.076 A 
HETATM   12  C10 UNL     1       1.157   0.521   1.320  1.00  0.00    -0.074 A 
HETATM   13  H1  UNL     1       3.528   0.234  -1.580  1.00  0.00     0.066 H 
HETATM   14  H2  UNL     1       5.065   1.050  -1.151  1.00  0.00     0.066 H 
HETATM   15  H3  UNL     1       5.015  -0.742  -1.159  1.00  0.00     0.066 H 
HETATM   16  H4  UNL     1       3.448  -1.797   0.214  1.00  0.00     0.081 H 
HETATM   17  H5  UNL     1       3.304  -1.085   1.829  1.00  0.00     0.081 H 
HETATM   18  H6  UNL     1       1.492  -1.738  -1.211  1.00  0.00     0.084 H 
HETATM   19  H7  UNL     1      -0.830  -1.046  -1.622  1.00  0.00     0.084 H 
HETATM   20  H8  UNL     1      -2.554   0.709  -1.306  1.00  0.00     0.042 H 
HETATM   21  H9  UNL     1      -2.466   1.831   0.088  1.00  0.00     0.042 H 
HETATM   22  H10 UNL     1      -3.038  -0.061   1.655  1.00  0.00     0.075 H 
HETATM   23  H11 UNL     1      -3.126  -1.190   0.251  1.00  0.00     0.075 H 
HETATM   24  H12 UNL     1      -4.818   1.237   0.663  1.00  0.00     0.274 HD
HETATM   25  H13 UNL     1      -4.902   0.165  -0.669  1.00  0.00     0.274 HD
HETATM   26  H14 UNL     1      -5.286  -0.382   0.896  1.00  0.00     0.274 HD
HETATM   27  H15 UNL     1      -0.618   1.655   1.733  1.00  0.00     0.084 H 
HETATM   28  H16 UNL     1       1.706   0.961   2.144  1.00  0.00     0.084 H 
TER      29      UNL     1 
ENDMDL
