REMARK FAKE_HEAD_ATOM=C1_O1
REMARK REAL_HEAD_ATOM=C2_C3
REMARK DUMMY_ATOM=C1_H1_H2_H3_O1
REMARK TORSION=C7_C8_C9_C10
REMARK TORSION=C8_C9_C10_N1
MODEL 0
HETATM    1  C1  UNL     1       2.901  -1.882   0.345  1.00  0.00     0.004 C 
HETATM    2  O1  UNL     1       1.507  -1.926   0.132  1.00  0.00    -0.391 OA
HETATM    3  C2  UNL     1       1.148  -1.097  -0.956  1.00  0.00     0.043 C 
HETATM    4  C3  UNL     1       0.900   0.321  -0.489  1.00  0.00    -0.028 A 
HETATM    5  C4  UNL     1       1.862   1.304  -0.783  1.00  0.00    -0.074 A 
HETATM    6  C5  UNL     1       1.688   2.622  -0.359  1.00  0.00    -0.082 A 
HETATM    7  C6  UNL     1       0.552   2.978   0.364  1.00  0.00    -0.082 A 
HETATM    8  C7  UNL     1      -0.412   2.018   0.671  1.00  0.00    -0.076 A 
HETATM    9  C8  UNL     1      -0.250   0.681   0.265  1.00  0.00    -0.048 A 
HETATM   10  C9  UNL     1      -1.346  -0.307   0.598  1.00  0.00    -0.018 C 
HETATM   11  C10 UNL     1      -2.444  -0.283  -0.474  1.00  0.00     0.083 C 
HETATM   12  N1  UNL     1      -3.493  -1.255  -0.170  1.00  0.00    -0.079 N 
HETATM   13  H1  UNL     1       3.451  -2.307  -0.523  1.00  0.00     0.066 H 
HETATM   14  H2  UNL     1       3.247  -0.847   0.558  1.00  0.00     0.066 H 
HETATM   15  H3  UNL     1       3.142  -2.504   1.232  1.00  0.00     0.066 H 
HETATM   16  H4  UNL     1       0.218  -1.498  -1.407  1.00  0.00     0.081 H 
HETATM   17  H5  UNL     1       1.894  -1.128  -1.786  1.00  0.00     0.081 H 
HETATM   18  H6  UNL     1       2.754   1.049  -1.343  1.00  0.00     0.084 H 
HETATM   19  H7  UNL     1       2.435   3.368  -0.594  1.00  0.00     0.083 H 
HETATM   20  H8  UNL     1       0.416   4.003   0.687  1.00  0.00     0.083 H 
HETATM   21  H9  UNL     1      -1.292   2.317   1.228  1.00  0.00     0.084 H 
HETATM   22  H10 UNL     1      -1.793  -0.048   1.583  1.00  0.00     0.042 H 
HETATM   23  H11 UNL     1      -0.942  -1.334   0.705  1.00  0.00     0.042 H 
HETATM   24  H12 UNL     1      -2.005  -0.516  -1.469  1.00  0.00     0.075 H 
HETATM   25  H13 UNL     1      -2.890   0.735  -0.525  1.00  0.00     0.075 H 
HETATM   26  H14 UNL     1      -3.932  -1.034   0.753  1.00  0.00     0.274 HD
HETATM   27  H15 UNL     1      -3.092  -2.221  -0.150  1.00  0.00     0.274 HD
HETATM   28  H16 UNL     1      -4.227  -1.209  -0.913  1.00  0.00     0.274 HD
TER      29      UNL     1 
ENDMDL
