REMARK FAKE_HEAD_ATOM=C1_O1
REMARK REAL_HEAD_ATOM=C2_C3
REMARK DUMMY_ATOM=C1_H1_H2_H3_O1
REMARK TORSION=C7_C8_C9_N1
MODEL 0
HETATM    1  C1  UNL     1       2.975  -0.598   0.107  1.00  0.00     0.004 C 
HETATM    2  O1  UNL     1       2.299  -0.448  -1.123  1.00  0.00    -0.391 OA
HETATM    3  C2  UNL     1       0.937  -0.810  -0.980  1.00  0.00     0.044 C 
HETATM    4  C3  UNL     1       0.111   0.339  -0.433  1.00  0.00    -0.019 A 
HETATM    5  C4  UNL     1       0.409   1.649  -0.855  1.00  0.00    -0.074 A 
HETATM    6  C5  UNL     1      -0.285   2.742  -0.334  1.00  0.00    -0.082 A 
HETATM    7  C6  UNL     1      -1.293   2.546   0.607  1.00  0.00    -0.082 A 
HETATM    8  C7  UNL     1      -1.629   1.253   1.013  1.00  0.00    -0.067 A 
HETATM    9  C8  UNL     1      -0.957   0.138   0.482  1.00  0.00     0.047 A 
HETATM   10  C9  UNL     1      -1.414  -1.207   0.899  1.00  0.00     0.345 C 
HETATM   11  N1  UNL     1      -1.784  -2.201  -0.066  1.00  0.00    -0.013 N 
HETATM   12  O2  UNL     1      -1.535  -1.464   2.127  1.00  0.00    -0.260 OA
HETATM   13  H1  UNL     1       2.493  -0.003   0.915  1.00  0.00     0.066 H 
HETATM   14  H2  UNL     1       3.035  -1.669   0.398  1.00  0.00     0.066 H 
HETATM   15  H3  UNL     1       4.012  -0.223  -0.012  1.00  0.00     0.066 H 
HETATM   16  H4  UNL     1       0.831  -1.734  -0.370  1.00  0.00     0.081 H 
HETATM   17  H5  UNL     1       0.542  -1.058  -1.987  1.00  0.00     0.081 H 
HETATM   18  H6  UNL     1       1.194   1.829  -1.579  1.00  0.00     0.084 H 
HETATM   19  H7  UNL     1      -0.036   3.745  -0.657  1.00  0.00     0.083 H 
HETATM   20  H8  UNL     1      -1.827   3.395   1.014  1.00  0.00     0.083 H 
HETATM   21  H9  UNL     1      -2.435   1.120   1.724  1.00  0.00     0.085 H 
HETATM   22  H10 UNL     1      -1.741  -1.814  -1.036  1.00  0.00     0.284 HD
HETATM   23  H11 UNL     1      -2.763  -2.511   0.126  1.00  0.00     0.284 HD
HETATM   24  H12 UNL     1      -1.141  -3.021   0.018  1.00  0.00     0.284 HD
TER      25      UNL     1 
ENDMDL
