REMARK FAKE_HEAD_ATOM=C1_O1
REMARK REAL_HEAD_ATOM=C2_C3
REMARK DUMMY_ATOM=C1_H1_H2_H3_O1
REMARK TORSION=C4_C5_C6_C7
REMARK TORSION=C5_C6_C7_C8
MODEL 0
HETATM    1  C1  UNL     1       4.329   0.674   0.734  1.00  0.00     0.004 C 
HETATM    2  O1  UNL     1       3.116  -0.029   0.586  1.00  0.00    -0.391 OA
HETATM    3  C2  UNL     1       2.278   0.666  -0.311  1.00  0.00     0.043 C 
HETATM    4  C3  UNL     1       0.990  -0.091  -0.457  1.00  0.00    -0.034 A 
HETATM    5  C4  UNL     1      -0.073   0.143   0.430  1.00  0.00    -0.069 A 
HETATM    6  C5  UNL     1      -1.266  -0.591   0.324  1.00  0.00    -0.054 A 
HETATM    7  C6  UNL     1      -2.415  -0.307   1.255  1.00  0.00    -0.027 C 
HETATM    8  C7  UNL     1      -3.177   0.908   0.805  1.00  0.00    -0.108 C 
HETATM    9  C8  UNL     1      -3.953   0.887  -0.282  1.00  0.00    -0.124 C 
HETATM   10  C9  UNL     1      -1.390  -1.561  -0.683  1.00  0.00    -0.077 A 
HETATM   11  C10 UNL     1      -0.328  -1.810  -1.556  1.00  0.00    -0.082 A 
HETATM   12  C11 UNL     1       0.860  -1.085  -1.440  1.00  0.00    -0.075 A 
HETATM   13  H1  UNL     1       4.159   1.686   1.163  1.00  0.00     0.066 H 
HETATM   14  H2  UNL     1       4.873   0.747  -0.234  1.00  0.00     0.066 H 
HETATM   15  H3  UNL     1       4.977   0.116   1.441  1.00  0.00     0.066 H 
HETATM   16  H4  UNL     1       2.057   1.691   0.065  1.00  0.00     0.081 H 
HETATM   17  H5  UNL     1       2.761   0.762  -1.312  1.00  0.00     0.081 H 
HETATM   18  H6  UNL     1       0.026   0.897   1.202  1.00  0.00     0.085 H 
HETATM   19  H7  UNL     1      -3.101  -1.180   1.320  1.00  0.00     0.045 H 
HETATM   20  H8  UNL     1      -2.021  -0.128   2.278  1.00  0.00     0.045 H 
HETATM   21  H9  UNL     1      -3.103   1.822   1.387  1.00  0.00     0.076 H 
HETATM   22  H10 UNL     1      -4.054  -0.013  -0.880  1.00  0.00     0.066 H 
HETATM   23  H11 UNL     1      -4.495   1.779  -0.579  1.00  0.00     0.066 H 
HETATM   24  H12 UNL     1      -2.307  -2.128  -0.789  1.00  0.00     0.084 H 
HETATM   25  H13 UNL     1      -0.426  -2.567  -2.323  1.00  0.00     0.083 H 
HETATM   26  H14 UNL     1       1.678  -1.295  -2.119  1.00  0.00     0.084 H 
TER      27      UNL     1 
ENDMDL
