REMARK FAKE_HEAD_ATOM=C7_O2
REMARK REAL_HEAD_ATOM=C6_C5
REMARK DUMMY_ATOM=C7_H5_H6_H7_O2
REMARK TORSION=C3_C2_C1_O1
MODEL 0
HETATM    1  O1  UNL     1       3.670   0.245   1.648  1.00  0.00    -0.260 OA
HETATM    2  C1  UNL     1       3.124   0.231   0.510  1.00  0.00     0.345 C 
HETATM    3  C2  UNL     1       1.674  -0.082   0.393  1.00  0.00     0.039 A 
HETATM    4  C3  UNL     1       0.915  -0.361   1.545  1.00  0.00    -0.067 A 
HETATM    5  C4  UNL     1      -0.447  -0.656   1.446  1.00  0.00    -0.074 A 
HETATM    6  C5  UNL     1      -1.077  -0.684   0.195  1.00  0.00    -0.035 A 
HETATM    7  C6  UNL     1      -2.550  -0.982   0.098  1.00  0.00     0.043 C 
HETATM    8  O2  UNL     1      -3.308   0.082   0.643  1.00  0.00    -0.391 OA
HETATM    9  C7  UNL     1      -3.563   1.056  -0.346  1.00  0.00     0.004 C 
HETATM   10  C8  UNL     1      -0.330  -0.400  -0.957  1.00  0.00    -0.074 A 
HETATM   11  C9  UNL     1       1.033  -0.105  -0.860  1.00  0.00    -0.067 A 
HETATM   12  N1  UNL     1       3.918   0.520  -0.649  1.00  0.00    -0.013 N 
HETATM   13  H1  UNL     1       1.373  -0.350   2.527  1.00  0.00     0.085 H 
HETATM   14  H2  UNL     1      -1.013  -0.863   2.347  1.00  0.00     0.084 H 
HETATM   15  H3  UNL     1      -2.850  -1.239  -0.945  1.00  0.00     0.081 H 
HETATM   16  H4  UNL     1      -2.760  -1.893   0.697  1.00  0.00     0.081 H 
HETATM   17  H5  UNL     1      -2.619   1.457  -0.776  1.00  0.00     0.066 H 
HETATM   18  H6  UNL     1      -4.103   1.903   0.124  1.00  0.00     0.066 H 
HETATM   19  H7  UNL     1      -4.214   0.646  -1.150  1.00  0.00     0.066 H 
HETATM   20  H8  UNL     1      -0.802  -0.405  -1.931  1.00  0.00     0.084 H 
HETATM   21  H9  UNL     1       1.577   0.107  -1.771  1.00  0.00     0.085 H 
HETATM   22  H10 UNL     1       3.907  -0.304  -1.292  1.00  0.00     0.284 HD
HETATM   23  H11 UNL     1       4.908   0.713  -0.369  1.00  0.00     0.284 HD
HETATM   24  H12 UNL     1       3.535   1.364  -1.131  1.00  0.00     0.284 HD
TER      25      UNL     1 
ENDMDL
