REMARK FAKE_HEAD_ATOM=C1_O1
REMARK REAL_HEAD_ATOM=C2_C3
REMARK DUMMY_ATOM=C1_H1_H2_H3_O1
REMARK TORSION=C6_C7_C8_C9
REMARK TORSION=C7_C8_C9_N1
MODEL 0
HETATM    1  C1  UNL     1       4.133  -1.545   0.088  1.00  0.00     0.004 C 
HETATM    2  O1  UNL     1       2.884  -0.996  -0.269  1.00  0.00    -0.391 OA
HETATM    3  C2  UNL     1       2.635   0.151   0.514  1.00  0.00     0.043 C 
HETATM    4  C3  UNL     1       1.301   0.722   0.127  1.00  0.00    -0.034 A 
HETATM    5  C4  UNL     1       1.209   1.669  -0.905  1.00  0.00    -0.075 A 
HETATM    6  C5  UNL     1      -0.037   2.167  -1.293  1.00  0.00    -0.082 A 
HETATM    7  C6  UNL     1      -1.201   1.718  -0.664  1.00  0.00    -0.077 A 
HETATM    8  C7  UNL     1      -1.126   0.763   0.362  1.00  0.00    -0.056 A 
HETATM    9  C8  UNL     1      -2.382   0.248   1.018  1.00  0.00    -0.019 C 
HETATM   10  C9  UNL     1      -2.807  -1.115   0.450  1.00  0.00     0.083 C 
HETATM   11  N1  UNL     1      -3.218  -1.018  -0.952  1.00  0.00    -0.079 N 
HETATM   12  C10 UNL     1       0.128   0.259   0.745  1.00  0.00    -0.069 A 
HETATM   13  H1  UNL     1       4.315  -2.443  -0.536  1.00  0.00     0.066 H 
HETATM   14  H2  UNL     1       4.141  -1.867   1.153  1.00  0.00     0.066 H 
HETATM   15  H3  UNL     1       4.960  -0.826  -0.108  1.00  0.00     0.066 H 
HETATM   16  H4  UNL     1       2.620  -0.105   1.599  1.00  0.00     0.081 H 
HETATM   17  H5  UNL     1       3.423   0.922   0.351  1.00  0.00     0.081 H 
HETATM   18  H6  UNL     1       2.101   2.018  -1.410  1.00  0.00     0.084 H 
HETATM   19  H7  UNL     1      -0.101   2.899  -2.089  1.00  0.00     0.083 H 
HETATM   20  H8  UNL     1      -2.159   2.107  -0.984  1.00  0.00     0.084 H 
HETATM   21  H9  UNL     1      -2.203   0.141   2.110  1.00  0.00     0.042 H 
HETATM   22  H10 UNL     1      -3.213   0.979   0.901  1.00  0.00     0.042 H 
HETATM   23  H11 UNL     1      -3.660  -1.497   1.054  1.00  0.00     0.075 H 
HETATM   24  H12 UNL     1      -1.973  -1.844   0.548  1.00  0.00     0.075 H 
HETATM   25  H13 UNL     1      -3.591  -1.945  -1.262  1.00  0.00     0.274 HD
HETATM   26  H14 UNL     1      -3.970  -0.299  -1.061  1.00  0.00     0.274 HD
HETATM   27  H15 UNL     1      -2.399  -0.772  -1.553  1.00  0.00     0.274 HD
HETATM   28  H16 UNL     1       0.189  -0.494   1.523  1.00  0.00     0.085 H 
TER      29      UNL     1 
ENDMDL
