REMARK FAKE_HEAD_ATOM=C11_O1
REMARK REAL_HEAD_ATOM=C10_C7
REMARK DUMMY_ATOM=C11_H12_H13_H14_O1
REMARK TORSION=C5_C4_C3_C2
REMARK TORSION=C4_C3_C2_C1
MODEL 0
HETATM    1  C1  UNL     1       3.689   1.452   0.537  1.00  0.00    -0.124 C 
HETATM    2  C2  UNL     1       3.738   0.157   0.210  1.00  0.00    -0.108 C 
HETATM    3  C3  UNL     1       3.047  -0.376  -1.014  1.00  0.00    -0.027 C 
HETATM    4  C4  UNL     1       1.554  -0.386  -0.823  1.00  0.00    -0.055 A 
HETATM    5  C5  UNL     1       0.943  -1.415  -0.090  1.00  0.00    -0.076 A 
HETATM    6  C6  UNL     1      -0.440  -1.412   0.113  1.00  0.00    -0.074 A 
HETATM    7  C7  UNL     1      -1.232  -0.383  -0.419  1.00  0.00    -0.035 A 
HETATM    8  C8  UNL     1      -0.618   0.661  -1.129  1.00  0.00    -0.074 A 
HETATM    9  C9  UNL     1       0.765   0.658  -1.332  1.00  0.00    -0.076 A 
HETATM   10  C10 UNL     1      -2.712  -0.359  -0.165  1.00  0.00     0.043 C 
HETATM   11  O1  UNL     1      -2.957   0.340   1.036  1.00  0.00    -0.391 OA
HETATM   12  C11 UNL     1      -4.344   0.370   1.285  1.00  0.00     0.004 C 
HETATM   13  H1  UNL     1       3.142   2.162  -0.075  1.00  0.00     0.066 H 
HETATM   14  H2  UNL     1       4.201   1.807   1.425  1.00  0.00     0.066 H 
HETATM   15  H3  UNL     1       4.300  -0.527   0.838  1.00  0.00     0.076 H 
HETATM   16  H4  UNL     1       3.332   0.231  -1.902  1.00  0.00     0.045 H 
HETATM   17  H5  UNL     1       3.399  -1.413  -1.204  1.00  0.00     0.045 H 
HETATM   18  H6  UNL     1       1.540  -2.216   0.329  1.00  0.00     0.084 H 
HETATM   19  H7  UNL     1      -0.892  -2.211   0.688  1.00  0.00     0.084 H 
HETATM   20  H8  UNL     1      -1.210   1.478  -1.522  1.00  0.00     0.084 H 
HETATM   21  H9  UNL     1       1.221   1.472  -1.881  1.00  0.00     0.084 H 
HETATM   22  H10 UNL     1      -3.088  -1.406  -0.099  1.00  0.00     0.081 H 
HETATM   23  H11 UNL     1      -3.221   0.138  -1.024  1.00  0.00     0.081 H 
HETATM   24  H12 UNL     1      -4.753  -0.657   1.414  1.00  0.00     0.066 H 
HETATM   25  H13 UNL     1      -4.888   0.907   0.476  1.00  0.00     0.066 H 
HETATM   26  H14 UNL     1      -4.522   0.922   2.231  1.00  0.00     0.066 H 
TER      27      UNL     1 
ENDMDL
