REMARK FAKE_HEAD_ATOM=C1_O1
REMARK REAL_HEAD_ATOM=C2_C3
REMARK DUMMY_ATOM=C1_H1_H2_H3_O1
REMARK TORSION=C4_C5_C6_O2
MODEL 0
HETATM    1  C1  UNL     1       2.940   0.629   0.450  1.00  0.00     0.004 C 
HETATM    2  O1  UNL     1       2.616  -0.595  -0.172  1.00  0.00    -0.391 OA
HETATM    3  C2  UNL     1       1.617  -0.395  -1.155  1.00  0.00     0.043 C 
HETATM    4  C3  UNL     1       0.246  -0.494  -0.541  1.00  0.00    -0.034 A 
HETATM    5  C4  UNL     1      -0.554   0.652  -0.391  1.00  0.00    -0.062 A 
HETATM    6  C5  UNL     1      -1.824   0.562   0.200  1.00  0.00     0.002 A 
HETATM    7  C6  UNL     1      -2.646   1.778   0.345  1.00  0.00     0.118 C 
HETATM    8  O2  UNL     1      -3.790   1.730   0.873  1.00  0.00    -0.301 OA
HETATM    9  C7  UNL     1      -2.289  -0.686   0.648  1.00  0.00    -0.070 A 
HETATM   10  C8  UNL     1      -1.493  -1.826   0.506  1.00  0.00    -0.082 A 
HETATM   11  C9  UNL     1      -0.230  -1.731  -0.082  1.00  0.00    -0.075 A 
HETATM   12  H1  UNL     1       3.410   1.332  -0.273  1.00  0.00     0.066 H 
HETATM   13  H2  UNL     1       3.678   0.432   1.254  1.00  0.00     0.066 H 
HETATM   14  H3  UNL     1       2.047   1.096   0.922  1.00  0.00     0.066 H 
HETATM   15  H4  UNL     1       1.718  -1.201  -1.913  1.00  0.00     0.081 H 
HETATM   16  H5  UNL     1       1.747   0.558  -1.719  1.00  0.00     0.081 H 
HETATM   17  H6  UNL     1      -0.185   1.612  -0.733  1.00  0.00     0.085 H 
HETATM   18  H7  UNL     1      -2.270   2.731  -0.004  1.00  0.00     0.151 H 
HETATM   19  H8  UNL     1      -3.265  -0.782   1.108  1.00  0.00     0.084 H 
HETATM   20  H9  UNL     1      -1.855  -2.784   0.856  1.00  0.00     0.083 H 
HETATM   21  H10 UNL     1       0.379  -2.622  -0.181  1.00  0.00     0.084 H 
TER      22      UNL     1 
ENDMDL
