REMARK FAKE_HEAD_ATOM=C10_O1
REMARK REAL_HEAD_ATOM=C9_C8
REMARK DUMMY_ATOM=C10_H10_H11_H12_O1
REMARK TORSION=C4_C3_C2_C1
MODEL 0
HETATM    1  C1  UNL     1      -2.803   1.859   0.915  1.00  0.00    -0.066 C 
HETATM    2  C2  UNL     1      -2.477   0.436   0.401  1.00  0.00    -0.024 C 
HETATM    3  C3  UNL     1      -0.985   0.243   0.061  1.00  0.00    -0.051 A 
HETATM    4  C4  UNL     1      -0.023   1.268   0.226  1.00  0.00    -0.076 A 
HETATM    5  C5  UNL     1       1.321   1.050  -0.093  1.00  0.00    -0.074 A 
HETATM    6  C6  UNL     1       1.742  -0.187  -0.595  1.00  0.00    -0.035 A 
HETATM    7  C7  UNL     1       0.807  -1.217  -0.745  1.00  0.00    -0.074 A 
HETATM    8  C8  UNL     1      -0.537  -1.005  -0.428  1.00  0.00    -0.076 A 
HETATM    9  C9  UNL     1       3.193  -0.428  -0.899  1.00  0.00     0.043 C 
HETATM   10  O1  UNL     1       3.829  -0.907   0.266  1.00  0.00    -0.391 OA
HETATM   11  C10 UNL     1       5.193  -1.137  -0.006  1.00  0.00     0.004 C 
HETATM   12  C11 UNL     1      -3.329   0.189  -0.863  1.00  0.00    -0.066 C 
HETATM   13  C12 UNL     1      -2.889  -0.566   1.501  1.00  0.00    -0.066 C 
HETATM   14  H1  UNL     1      -3.887   1.958   1.142  1.00  0.00     0.028 H 
HETATM   15  H2  UNL     1      -2.552   2.624   0.149  1.00  0.00     0.028 H 
HETATM   16  H3  UNL     1      -2.246   2.080   1.852  1.00  0.00     0.028 H 
HETATM   17  H4  UNL     1      -0.286   2.244   0.603  1.00  0.00     0.084 H 
HETATM   18  H5  UNL     1       2.035   1.852   0.052  1.00  0.00     0.084 H 
HETATM   19  H6  UNL     1       1.118  -2.189  -1.108  1.00  0.00     0.084 H 
HETATM   20  H7  UNL     1      -1.226  -1.828  -0.564  1.00  0.00     0.084 H 
HETATM   21  H8  UNL     1       3.273  -1.170  -1.728  1.00  0.00     0.081 H 
HETATM   22  H9  UNL     1       3.657   0.525  -1.242  1.00  0.00     0.081 H 
HETATM   23  H10 UNL     1       5.679  -1.512   0.918  1.00  0.00     0.066 H 
HETATM   24  H11 UNL     1       5.321  -1.914  -0.792  1.00  0.00     0.066 H 
HETATM   25  H12 UNL     1       5.710  -0.197  -0.300  1.00  0.00     0.066 H 
HETATM   26  H13 UNL     1      -3.016   0.874  -1.680  1.00  0.00     0.028 H 
HETATM   27  H14 UNL     1      -3.230  -0.855  -1.226  1.00  0.00     0.028 H 
HETATM   28  H15 UNL     1      -4.407   0.366  -0.653  1.00  0.00     0.028 H 
HETATM   29  H16 UNL     1      -3.952  -0.417   1.792  1.00  0.00     0.028 H 
HETATM   30  H17 UNL     1      -2.256  -0.429   2.405  1.00  0.00     0.028 H 
HETATM   31  H18 UNL     1      -2.783  -1.616   1.157  1.00  0.00     0.028 H 
TER      32      UNL     1 
ENDMDL
