REMARK FAKE_HEAD_ATOM=C8_O2
REMARK REAL_HEAD_ATOM=C7_C6
REMARK DUMMY_ATOM=C8_H9_H10_H11_O2
REMARK TORSION=C4_C3_N1_C1
REMARK TORSION=C3_N1_C1_O1
MODEL 0
HETATM    1  O1  UNL     1      -3.426  -1.296  -0.075  1.00  0.00    -0.274 OA
HETATM    2  C1  UNL     1      -3.554  -0.048  -0.200  1.00  0.00     0.218 C 
HETATM    3  C2  UNL     1      -4.900   0.572  -0.009  1.00  0.00    -0.003 C 
HETATM    4  N1  UNL     1      -2.446   0.764  -0.616  1.00  0.00    -0.328 N 
HETATM    5  C3  UNL     1      -1.081   0.311  -0.653  1.00  0.00     0.034 A 
HETATM    6  C4  UNL     1      -0.209   0.833  -1.620  1.00  0.00    -0.057 A 
HETATM    7  C5  UNL     1       1.127   0.426  -1.664  1.00  0.00    -0.073 A 
HETATM    8  C6  UNL     1       1.615  -0.503  -0.734  1.00  0.00    -0.035 A 
HETATM    9  C7  UNL     1       3.061  -0.920  -0.773  1.00  0.00     0.043 C 
HETATM   10  O2  UNL     1       3.898   0.154  -0.389  1.00  0.00    -0.391 OA
HETATM   11  C8  UNL     1       4.066   0.165   1.012  1.00  0.00     0.004 C 
HETATM   12  C9  UNL     1       0.754  -1.005   0.253  1.00  0.00    -0.073 A 
HETATM   13  C10 UNL     1      -0.583  -0.599   0.297  1.00  0.00    -0.057 A 
HETATM   14  H1  UNL     1      -4.792   1.569   0.468  1.00  0.00     0.040 H 
HETATM   15  H2  UNL     1      -5.396   0.690  -0.994  1.00  0.00     0.040 H 
HETATM   16  H3  UNL     1      -5.531  -0.068   0.643  1.00  0.00     0.040 H 
HETATM   17  H4  UNL     1      -2.657   1.717  -0.991  1.00  0.00     0.169 HD
HETATM   18  H5  UNL     1      -0.570   1.552  -2.345  1.00  0.00     0.086 H 
HETATM   19  H6  UNL     1       1.783   0.838  -2.421  1.00  0.00     0.084 H 
HETATM   20  H7  UNL     1       3.238  -1.845  -0.174  1.00  0.00     0.081 H 
HETATM   21  H8  UNL     1       3.316  -1.195  -1.819  1.00  0.00     0.081 H 
HETATM   22  H9  UNL     1       4.616  -0.740   1.354  1.00  0.00     0.066 H 
HETATM   23  H10 UNL     1       4.674   1.051   1.288  1.00  0.00     0.066 H 
HETATM   24  H11 UNL     1       3.091   0.250   1.539  1.00  0.00     0.066 H 
HETATM   25  H12 UNL     1       1.119  -1.703   0.997  1.00  0.00     0.084 H 
HETATM   26  H13 UNL     1      -1.216  -0.975   1.090  1.00  0.00     0.086 H 
TER      27      UNL     1 
ENDMDL
