REMARK FAKE_HEAD_ATOM=C9_O1
REMARK REAL_HEAD_ATOM=C8_C5
REMARK DUMMY_ATOM=C9_H10_H11_H12_O1
MODEL 0
HETATM    1  C1  UNL     1      -3.824   0.268  -0.077  1.00  0.00    -0.051 C 
HETATM    2  C2  UNL     1      -2.334   0.120  -0.161  1.00  0.00    -0.062 A 
HETATM    3  C3  UNL     1      -1.697  -0.975   0.444  1.00  0.00    -0.077 A 
HETATM    4  C4  UNL     1      -0.312  -1.133   0.336  1.00  0.00    -0.074 A 
HETATM    5  C5  UNL     1       0.451  -0.213  -0.400  1.00  0.00    -0.035 A 
HETATM    6  C6  UNL     1      -0.187   0.882  -1.005  1.00  0.00    -0.074 A 
HETATM    7  C7  UNL     1      -1.572   1.040  -0.897  1.00  0.00    -0.077 A 
HETATM    8  C8  UNL     1       1.943  -0.361  -0.484  1.00  0.00     0.043 C 
HETATM    9  O1  UNL     1       2.530   0.325   0.601  1.00  0.00    -0.391 OA
HETATM   10  C9  UNL     1       3.932   0.193   0.533  1.00  0.00     0.004 C 
HETATM   11  H1  UNL     1      -4.115   1.339  -0.119  1.00  0.00     0.033 H 
HETATM   12  H2  UNL     1      -4.207  -0.155   0.876  1.00  0.00     0.033 H 
HETATM   13  H3  UNL     1      -4.297  -0.268  -0.927  1.00  0.00     0.033 H 
HETATM   14  H4  UNL     1      -2.272  -1.703   1.003  1.00  0.00     0.084 H 
HETATM   15  H5  UNL     1       0.165  -1.974   0.823  1.00  0.00     0.084 H 
HETATM   16  H6  UNL     1       0.387   1.611  -1.564  1.00  0.00     0.084 H 
HETATM   17  H7  UNL     1      -2.049   1.881  -1.383  1.00  0.00     0.084 H 
HETATM   18  H8  UNL     1       2.204  -1.444  -0.456  1.00  0.00     0.081 H 
HETATM   19  H9  UNL     1       2.297   0.056  -1.455  1.00  0.00     0.081 H 
HETATM   20  H10 UNL     1       4.380   0.736   1.391  1.00  0.00     0.066 H 
HETATM   21  H11 UNL     1       4.241  -0.873   0.613  1.00  0.00     0.066 H 
HETATM   22  H12 UNL     1       4.336   0.647  -0.399  1.00  0.00     0.066 H 
TER      23      UNL     1 
ENDMDL
