REMARK FAKE_HEAD_ATOM=C1_O1
REMARK REAL_HEAD_ATOM=C2_C3
REMARK DUMMY_ATOM=C1_H1_H2_H3_O1
REMARK TORSION=C4_C5_N1_C6
REMARK TORSION=C5_N1_C6_C7
MODEL 0
HETATM    1  C1  UNL     1       3.124  -1.638   0.744  1.00  0.00     0.004 C 
HETATM    2  O1  UNL     1       3.490  -0.359   0.274  1.00  0.00    -0.391 OA
HETATM    3  C2  UNL     1       2.578   0.614   0.744  1.00  0.00     0.043 C 
HETATM    4  C3  UNL     1       1.413   0.746  -0.202  1.00  0.00    -0.032 A 
HETATM    5  C4  UNL     1       0.143   0.267   0.158  1.00  0.00    -0.049 A 
HETATM    6  C5  UNL     1      -0.941   0.374  -0.733  1.00  0.00     0.035 A 
HETATM    7  N1  UNL     1      -2.245  -0.128  -0.393  1.00  0.00    -0.328 N 
HETATM    8  C6  UNL     1      -2.797  -0.105   0.932  1.00  0.00     0.218 C 
HETATM    9  C7  UNL     1      -4.073  -0.828   1.218  1.00  0.00    -0.003 C 
HETATM   10  O2  UNL     1      -2.264   0.588   1.839  1.00  0.00    -0.274 OA
HETATM   11  C8  UNL     1      -0.728   0.929  -2.004  1.00  0.00    -0.057 A 
HETATM   12  C9  UNL     1       0.535   1.401  -2.368  1.00  0.00    -0.080 A 
HETATM   13  C10 UNL     1       1.602   1.312  -1.472  1.00  0.00    -0.075 A 
HETATM   14  H1  UNL     1       3.212  -1.696   1.851  1.00  0.00     0.066 H 
HETATM   15  H2  UNL     1       2.096  -1.913   0.420  1.00  0.00     0.066 H 
HETATM   16  H3  UNL     1       3.822  -2.386   0.313  1.00  0.00     0.066 H 
HETATM   17  H4  UNL     1       2.237   0.424   1.789  1.00  0.00     0.081 H 
HETATM   18  H5  UNL     1       3.107   1.590   0.781  1.00  0.00     0.081 H 
HETATM   19  H6  UNL     1       0.011  -0.214   1.119  1.00  0.00     0.087 H 
HETATM   20  H7  UNL     1      -2.863  -0.456  -1.170  1.00  0.00     0.169 HD
HETATM   21  H8  UNL     1      -4.931  -0.210   0.883  1.00  0.00     0.040 H 
HETATM   22  H9  UNL     1      -4.087  -1.798   0.677  1.00  0.00     0.040 H 
HETATM   23  H10 UNL     1      -4.168  -1.027   2.306  1.00  0.00     0.040 H 
HETATM   24  H11 UNL     1      -1.546   1.002  -2.710  1.00  0.00     0.086 H 
HETATM   25  H12 UNL     1       0.688   1.833  -3.348  1.00  0.00     0.083 H 
HETATM   26  H13 UNL     1       2.578   1.676  -1.769  1.00  0.00     0.084 H 
TER      27      UNL     1 
ENDMDL
