REMARK FAKE_HEAD_ATOM=C1_O1
REMARK REAL_HEAD_ATOM=C2_C3
REMARK DUMMY_ATOM=C1_H1_H2_H3_O1
REMARK TORSION=C3_C4_N1_C9
REMARK TORSION=C8_N1_C9_C10
MODEL 0
HETATM    1  C1  UNL     1      -1.347  -1.976  -1.181  1.00  0.00     0.004 C 
HETATM    2  O1  UNL     1      -2.318  -1.421  -0.320  1.00  0.00    -0.391 OA
HETATM    3  C2  UNL     1      -1.711  -0.969   0.876  1.00  0.00     0.045 C 
HETATM    4  C3  UNL     1      -1.189   0.441   0.708  1.00  0.00    -0.008 A 
HETATM    5  C4  UNL     1       0.190   0.725   0.546  1.00  0.00     0.043 A 
HETATM    6  C5  UNL     1       0.600   2.052   0.327  1.00  0.00    -0.057 A 
HETATM    7  C6  UNL     1      -0.339   3.083   0.255  1.00  0.00    -0.081 A 
HETATM    8  C7  UNL     1      -1.697   2.802   0.403  1.00  0.00    -0.082 A 
HETATM    9  C8  UNL     1      -2.120   1.491   0.623  1.00  0.00    -0.073 A 
HETATM   10  N1  UNL     1       1.179  -0.313   0.639  1.00  0.00    -0.327 N 
HETATM   11  C9  UNL     1       2.218  -0.487  -0.336  1.00  0.00     0.218 C 
HETATM   12  C10 UNL     1       3.268  -1.528  -0.127  1.00  0.00    -0.003 C 
HETATM   13  O2  UNL     1       2.217   0.190  -1.400  1.00  0.00    -0.274 OA
HETATM   14  H1  UNL     1      -0.593  -1.217  -1.482  1.00  0.00     0.066 H 
HETATM   15  H2  UNL     1      -1.853  -2.325  -2.104  1.00  0.00     0.066 H 
HETATM   16  H3  UNL     1      -0.851  -2.858  -0.718  1.00  0.00     0.066 H 
HETATM   17  H4  UNL     1      -2.494  -0.953   1.664  1.00  0.00     0.081 H 
HETATM   18  H5  UNL     1      -0.948  -1.678   1.262  1.00  0.00     0.081 H 
HETATM   19  H6  UNL     1       1.651   2.290   0.226  1.00  0.00     0.086 H 
HETATM   20  H7  UNL     1      -0.012   4.101   0.088  1.00  0.00     0.083 H 
HETATM   21  H8  UNL     1      -2.423   3.602   0.342  1.00  0.00     0.083 H 
HETATM   22  H9  UNL     1      -3.180   1.290   0.722  1.00  0.00     0.084 H 
HETATM   23  H10 UNL     1       1.143  -0.975   1.445  1.00  0.00     0.169 HD
HETATM   24  H11 UNL     1       4.138  -1.341  -0.793  1.00  0.00     0.040 H 
HETATM   25  H12 UNL     1       3.615  -1.508   0.927  1.00  0.00     0.040 H 
HETATM   26  H13 UNL     1       2.845  -2.529  -0.354  1.00  0.00     0.040 H 
TER      27      UNL     1 
ENDMDL
