REMARK FAKE_HEAD_ATOM=C11_O1
REMARK REAL_HEAD_ATOM=C10_C7
REMARK DUMMY_ATOM=C11_H12_H13_H14_O1
REMARK TORSION=C5_C4_C3_C2
MODEL 0
HETATM    1  C1  UNL     1       4.919   0.167  -0.405  1.00  0.00    -0.060 C 
HETATM    2  C2  UNL     1       3.463   0.481  -0.276  1.00  0.00    -0.106 C 
HETATM    3  C3  UNL     1       2.587  -0.469   0.072  1.00  0.00    -0.077 C 
HETATM    4  C4  UNL     1       1.131  -0.235   0.234  1.00  0.00    -0.036 A 
HETATM    5  C5  UNL     1       0.468   0.861  -0.353  1.00  0.00    -0.072 A 
HETATM    6  C6  UNL     1      -0.909   1.032  -0.179  1.00  0.00    -0.074 A 
HETATM    7  C7  UNL     1      -1.648   0.113   0.578  1.00  0.00    -0.035 A 
HETATM    8  C8  UNL     1      -0.997  -0.991   1.145  1.00  0.00    -0.074 A 
HETATM    9  C9  UNL     1       0.379  -1.164   0.973  1.00  0.00    -0.072 A 
HETATM   10  C10 UNL     1      -3.135   0.280   0.749  1.00  0.00     0.043 C 
HETATM   11  O1  UNL     1      -3.833  -0.715   0.026  1.00  0.00    -0.391 OA
HETATM   12  C11 UNL     1      -4.061  -0.286  -1.299  1.00  0.00     0.004 C 
HETATM   13  H1  UNL     1       5.314  -0.209   0.563  1.00  0.00     0.032 H 
HETATM   14  H2  UNL     1       5.073  -0.602  -1.191  1.00  0.00     0.032 H 
HETATM   15  H3  UNL     1       5.478   1.084  -0.687  1.00  0.00     0.032 H 
HETATM   16  H4  UNL     1       3.149   1.501  -0.448  1.00  0.00     0.076 H 
HETATM   17  H5  UNL     1       2.965  -1.463   0.288  1.00  0.00     0.084 H 
HETATM   18  H6  UNL     1       0.996   1.577  -0.967  1.00  0.00     0.084 H 
HETATM   19  H7  UNL     1      -1.400   1.878  -0.645  1.00  0.00     0.084 H 
HETATM   20  H8  UNL     1      -1.556  -1.719   1.720  1.00  0.00     0.084 H 
HETATM   21  H9  UNL     1       0.860  -2.024   1.423  1.00  0.00     0.084 H 
HETATM   22  H10 UNL     1      -3.377   0.154   1.826  1.00  0.00     0.081 H 
HETATM   23  H11 UNL     1      -3.464   1.316   0.493  1.00  0.00     0.081 H 
HETATM   24  H12 UNL     1      -3.107  -0.051  -1.821  1.00  0.00     0.066 H 
HETATM   25  H13 UNL     1      -4.553  -1.108  -1.857  1.00  0.00     0.066 H 
HETATM   26  H14 UNL     1      -4.744   0.592  -1.322  1.00  0.00     0.066 H 
TER      27      UNL     1 
ENDMDL
