REMARK FAKE_HEAD_ATOM=C1_O1
REMARK REAL_HEAD_ATOM=C2_C3
REMARK DUMMY_ATOM=C1_H1_H2_H3_O1
REMARK TORSION=C6_C7_C8_C9
MODEL 0
HETATM    1  C1  UNL     1      -3.968  -0.873   1.530  1.00  0.00     0.004 C 
HETATM    2  O1  UNL     1      -2.785  -0.156   1.258  1.00  0.00    -0.391 OA
HETATM    3  C2  UNL     1      -2.503  -0.224  -0.123  1.00  0.00     0.043 C 
HETATM    4  C3  UNL     1      -1.238   0.538  -0.398  1.00  0.00    -0.034 A 
HETATM    5  C4  UNL     1      -1.291   1.903  -0.716  1.00  0.00    -0.075 A 
HETATM    6  C5  UNL     1      -0.115   2.616  -0.951  1.00  0.00    -0.082 A 
HETATM    7  C6  UNL     1       1.124   1.978  -0.851  1.00  0.00    -0.073 A 
HETATM    8  C7  UNL     1       1.203   0.621  -0.500  1.00  0.00    -0.036 A 
HETATM    9  C8  UNL     1       2.544  -0.009  -0.405  1.00  0.00    -0.077 C 
HETATM   10  C9  UNL     1       2.794  -1.137   0.270  1.00  0.00    -0.106 C 
HETATM   11  C10 UNL     1       4.177  -1.701   0.330  1.00  0.00    -0.060 C 
HETATM   12  C11 UNL     1       0.010  -0.097  -0.280  1.00  0.00    -0.065 A 
HETATM   13  H1  UNL     1      -4.839  -0.433   0.995  1.00  0.00     0.066 H 
HETATM   14  H2  UNL     1      -4.177  -0.809   2.618  1.00  0.00     0.066 H 
HETATM   15  H3  UNL     1      -3.856  -1.949   1.272  1.00  0.00     0.066 H 
HETATM   16  H4  UNL     1      -2.370  -1.281  -0.450  1.00  0.00     0.081 H 
HETATM   17  H5  UNL     1      -3.335   0.219  -0.719  1.00  0.00     0.081 H 
HETATM   18  H6  UNL     1      -2.244   2.414  -0.788  1.00  0.00     0.084 H 
HETATM   19  H7  UNL     1      -0.162   3.666  -1.207  1.00  0.00     0.083 H 
HETATM   20  H8  UNL     1       2.025   2.551  -1.036  1.00  0.00     0.084 H 
HETATM   21  H9  UNL     1       3.375   0.501  -0.880  1.00  0.00     0.084 H 
HETATM   22  H10 UNL     1       2.013  -1.654   0.811  1.00  0.00     0.076 H 
HETATM   23  H11 UNL     1       4.180  -2.625   0.945  1.00  0.00     0.032 H 
HETATM   24  H12 UNL     1       4.869  -0.963   0.789  1.00  0.00     0.032 H 
HETATM   25  H13 UNL     1       4.528  -1.951  -0.694  1.00  0.00     0.032 H 
HETATM   26  H14 UNL     1       0.034  -1.151  -0.041  1.00  0.00     0.085 H 
TER      27      UNL     1 
ENDMDL
