REMARK FAKE_HEAD_ATOM=C1_O1
REMARK REAL_HEAD_ATOM=C2_C3
REMARK DUMMY_ATOM=C1_H1_H2_H3_O1
REMARK TORSION=C3_C4_C9_C10
REMARK TORSION=C4_C9_C10_C11
MODEL 0
HETATM    1  C1  UNL     1       1.747   1.747  -1.222  1.00  0.00     0.004 C 
HETATM    2  O1  UNL     1       2.242   1.469   0.070  1.00  0.00    -0.391 OA
HETATM    3  C2  UNL     1       1.170   1.242   0.966  1.00  0.00     0.043 C 
HETATM    4  C3  UNL     1       0.673  -0.187   0.868  1.00  0.00    -0.028 A 
HETATM    5  C4  UNL     1      -0.695  -0.524   0.672  1.00  0.00    -0.046 A 
HETATM    6  C5  UNL     1      -1.057  -1.881   0.569  1.00  0.00    -0.076 A 
HETATM    7  C6  UNL     1      -0.098  -2.887   0.683  1.00  0.00    -0.082 A 
HETATM    8  C7  UNL     1       1.238  -2.557   0.901  1.00  0.00    -0.082 A 
HETATM    9  C8  UNL     1       1.621  -1.219   0.995  1.00  0.00    -0.074 A 
HETATM   10  C9  UNL     1      -1.786   0.518   0.547  1.00  0.00    -0.026 C 
HETATM   11  C10 UNL     1      -1.750   1.190  -0.798  1.00  0.00    -0.108 C 
HETATM   12  C11 UNL     1      -2.032   0.527  -1.924  1.00  0.00    -0.124 C 
HETATM   13  H1  UNL     1       2.607   1.885  -1.907  1.00  0.00     0.066 H 
HETATM   14  H2  UNL     1       1.139   0.902  -1.614  1.00  0.00     0.066 H 
HETATM   15  H3  UNL     1       1.156   2.690  -1.231  1.00  0.00     0.066 H 
HETATM   16  H4  UNL     1       1.555   1.389   1.997  1.00  0.00     0.081 H 
HETATM   17  H5  UNL     1       0.373   2.006   0.849  1.00  0.00     0.081 H 
HETATM   18  H6  UNL     1      -2.089  -2.163   0.402  1.00  0.00     0.084 H 
HETATM   19  H7  UNL     1      -0.392  -3.926   0.606  1.00  0.00     0.083 H 
HETATM   20  H8  UNL     1       1.979  -3.340   0.995  1.00  0.00     0.083 H 
HETATM   21  H9  UNL     1       2.665  -0.985   1.162  1.00  0.00     0.084 H 
HETATM   22  H10 UNL     1      -1.681   1.275   1.352  1.00  0.00     0.045 H 
HETATM   23  H11 UNL     1      -2.790   0.064   0.693  1.00  0.00     0.045 H 
HETATM   24  H12 UNL     1      -1.504   2.246  -0.854  1.00  0.00     0.076 H 
HETATM   25  H13 UNL     1      -2.293  -0.527  -1.901  1.00  0.00     0.066 H 
HETATM   26  H14 UNL     1      -2.003   1.042  -2.878  1.00  0.00     0.066 H 
TER      27      UNL     1 
ENDMDL
