REMARK FAKE_HEAD_ATOM=C1_O1
REMARK REAL_HEAD_ATOM=C2_C3
REMARK DUMMY_ATOM=C1_H1_H2_H3_O1
REMARK TORSION=C7_C8_C9_C10
MODEL 0
HETATM    1  C1  UNL     1       3.552  -1.941  -0.072  1.00  0.00     0.004 C 
HETATM    2  O1  UNL     1       2.946  -0.667  -0.094  1.00  0.00    -0.391 OA
HETATM    3  C2  UNL     1       1.562  -0.795   0.172  1.00  0.00     0.043 C 
HETATM    4  C3  UNL     1       0.890   0.565   0.258  1.00  0.00    -0.028 C 
HETATM    5  C4  UNL     1       1.706   1.662   0.616  1.00  0.00    -0.074 C 
HETATM    6  C5  UNL     1       1.212   2.959   0.633  1.00  0.00    -0.082 C 
HETATM    7  C6  UNL     1      -0.109   3.197   0.296  1.00  0.00    -0.082 C 
HETATM    8  C7  UNL     1      -0.959   2.136  -0.002  1.00  0.00    -0.075 C 
HETATM    9  C8  UNL     1      -0.522   0.783   0.041  1.00  0.00    -0.042 C 
HETATM   10  C9  UNL     1      -1.571  -0.353  -0.204  1.00  0.00    -0.024 C 
HETATM   11  C10 UNL     1      -1.328  -1.590   0.705  1.00  0.00    -0.066 C 
HETATM   12  C11 UNL     1      -1.546  -0.768  -1.690  1.00  0.00    -0.066 C 
HETATM   13  C12 UNL     1      -3.022   0.117   0.114  1.00  0.00    -0.066 C 
HETATM   14  H1  UNL     1       4.630  -1.823  -0.304  1.00  0.00     0.066 H 
HETATM   15  H2  UNL     1       3.113  -2.611  -0.845  1.00  0.00     0.066 H 
HETATM   16  H3  UNL     1       3.473  -2.406   0.935  1.00  0.00     0.066 H 
HETATM   17  H4  UNL     1       1.402  -1.314   1.144  1.00  0.00     0.081 H 
HETATM   18  H5  UNL     1       1.117  -1.370  -0.659  1.00  0.00     0.081 H 
HETATM   19  H6  UNL     1       2.750   1.524   0.870  1.00  0.00     0.084 H 
HETATM   20  H7  UNL     1       1.863   3.785   0.888  1.00  0.00     0.083 H 
HETATM   21  H8  UNL     1      -0.485   4.212   0.278  1.00  0.00     0.083 H 
HETATM   22  H9  UNL     1      -1.971   2.407  -0.253  1.00  0.00     0.084 H 
HETATM   23  H10 UNL     1      -2.245  -2.207   0.824  1.00  0.00     0.028 H 
HETATM   24  H11 UNL     1      -0.592  -2.299   0.284  1.00  0.00     0.028 H 
HETATM   25  H12 UNL     1      -1.010  -1.272   1.721  1.00  0.00     0.028 H 
HETATM   26  H13 UNL     1      -0.558  -1.150  -2.006  1.00  0.00     0.028 H 
HETATM   27  H14 UNL     1      -2.295  -1.566  -1.884  1.00  0.00     0.028 H 
HETATM   28  H15 UNL     1      -1.788   0.102  -2.337  1.00  0.00     0.028 H 
HETATM   29  H16 UNL     1      -3.075   0.567   1.129  1.00  0.00     0.028 H 
HETATM   30  H17 UNL     1      -3.743  -0.729   0.076  1.00  0.00     0.028 H 
HETATM   31  H18 UNL     1      -3.399   0.844  -0.636  1.00  0.00     0.028 H 
TER      32      UNL     1 
ENDMDL
