REMARK FAKE_HEAD_ATOM=C1_O1
REMARK REAL_HEAD_ATOM=C2_C3
REMARK DUMMY_ATOM=C1_H1_H2_H3_O1
REMARK TORSION=C6_C7_C8_C9
MODEL 0
HETATM    1  C1  UNL     1       4.080  -0.247   1.185  1.00  0.00     0.004 C 
HETATM    2  O1  UNL     1       3.198   0.854   1.223  1.00  0.00    -0.391 OA
HETATM    3  C2  UNL     1       2.836   1.236  -0.090  1.00  0.00     0.043 C 
HETATM    4  C3  UNL     1       1.643   0.447  -0.561  1.00  0.00    -0.034 A 
HETATM    5  C4  UNL     1       1.781  -0.506  -1.578  1.00  0.00    -0.075 A 
HETATM    6  C5  UNL     1       0.678  -1.247  -1.996  1.00  0.00    -0.082 A 
HETATM    7  C6  UNL     1      -0.569  -1.049  -1.402  1.00  0.00    -0.076 A 
HETATM    8  C7  UNL     1      -0.744  -0.101  -0.369  1.00  0.00    -0.050 A 
HETATM    9  C8  UNL     1      -2.139   0.084   0.266  1.00  0.00    -0.024 C 
HETATM   10  C9  UNL     1      -3.146   0.516  -0.822  1.00  0.00    -0.066 C 
HETATM   11  C10 UNL     1      -2.600  -1.250   0.892  1.00  0.00    -0.066 C 
HETATM   12  C11 UNL     1      -2.163   1.159   1.380  1.00  0.00    -0.066 C 
HETATM   13  C12 UNL     1       0.390   0.642   0.042  1.00  0.00    -0.068 A 
HETATM   14  H1  UNL     1       3.625  -1.116   0.659  1.00  0.00     0.066 H 
HETATM   15  H2  UNL     1       4.296  -0.562   2.226  1.00  0.00     0.066 H 
HETATM   16  H3  UNL     1       5.046   0.033   0.710  1.00  0.00     0.066 H 
HETATM   17  H4  UNL     1       2.555   2.311  -0.068  1.00  0.00     0.081 H 
HETATM   18  H5  UNL     1       3.686   1.169  -0.811  1.00  0.00     0.081 H 
HETATM   19  H6  UNL     1       2.743  -0.677  -2.045  1.00  0.00     0.084 H 
HETATM   20  H7  UNL     1       0.790  -1.981  -2.783  1.00  0.00     0.083 H 
HETATM   21  H8  UNL     1      -1.400  -1.645  -1.755  1.00  0.00     0.084 H 
HETATM   22  H9  UNL     1      -4.150   0.697  -0.381  1.00  0.00     0.028 H 
HETATM   23  H10 UNL     1      -2.806   1.453  -1.314  1.00  0.00     0.028 H 
HETATM   24  H11 UNL     1      -3.264  -0.264  -1.603  1.00  0.00     0.028 H 
HETATM   25  H12 UNL     1      -3.585  -1.130   1.393  1.00  0.00     0.028 H 
HETATM   26  H13 UNL     1      -1.863  -1.597   1.648  1.00  0.00     0.028 H 
HETATM   27  H14 UNL     1      -2.713  -2.044   0.125  1.00  0.00     0.028 H 
HETATM   28  H15 UNL     1      -3.184   1.261   1.807  1.00  0.00     0.028 H 
HETATM   29  H16 UNL     1      -1.869   2.153   0.978  1.00  0.00     0.028 H 
HETATM   30  H17 UNL     1      -1.480   0.882   2.212  1.00  0.00     0.028 H 
HETATM   31  H18 UNL     1       0.325   1.379   0.829  1.00  0.00     0.085 H 
TER      32      UNL     1 
ENDMDL
