REMARK FAKE_HEAD_ATOM=C1_O1
REMARK REAL_HEAD_ATOM=C2_C3
REMARK DUMMY_ATOM=C1_H1_H2_H3_O1
REMARK TORSION=C7_C8_C9_C10
MODEL 0
HETATM    1  C1  UNL     1      -2.578   1.411   1.984  1.00  0.00     0.004 C 
HETATM    2  O1  UNL     1      -1.870   0.323   1.433  1.00  0.00    -0.391 OA
HETATM    3  C2  UNL     1      -1.760   0.494   0.036  1.00  0.00     0.043 C 
HETATM    4  C3  UNL     1      -0.924  -0.627  -0.530  1.00  0.00    -0.024 A 
HETATM    5  C4  UNL     1      -1.575  -1.713  -1.144  1.00  0.00    -0.074 A 
HETATM    6  C5  UNL     1      -0.843  -2.773  -1.678  1.00  0.00    -0.082 A 
HETATM    7  C6  UNL     1       0.548  -2.773  -1.595  1.00  0.00    -0.082 A 
HETATM    8  C7  UNL     1       1.213  -1.715  -0.975  1.00  0.00    -0.072 A 
HETATM    9  C8  UNL     1       0.494  -0.627  -0.437  1.00  0.00    -0.028 A 
HETATM   10  C9  UNL     1       1.213   0.474   0.257  1.00  0.00    -0.076 C 
HETATM   11  C10 UNL     1       2.435   0.884  -0.097  1.00  0.00    -0.106 C 
HETATM   12  C11 UNL     1       3.107   2.005   0.628  1.00  0.00    -0.060 C 
HETATM   13  H1  UNL     1      -3.604   1.482   1.560  1.00  0.00     0.066 H 
HETATM   14  H2  UNL     1      -2.676   1.250   3.077  1.00  0.00     0.066 H 
HETATM   15  H3  UNL     1      -2.027   2.366   1.833  1.00  0.00     0.066 H 
HETATM   16  H4  UNL     1      -1.282   1.467  -0.220  1.00  0.00     0.081 H 
HETATM   17  H5  UNL     1      -2.770   0.487  -0.435  1.00  0.00     0.081 H 
HETATM   18  H6  UNL     1      -2.656  -1.738  -1.213  1.00  0.00     0.084 H 
HETATM   19  H7  UNL     1      -1.356  -3.600  -2.152  1.00  0.00     0.083 H 
HETATM   20  H8  UNL     1       1.112  -3.603  -2.000  1.00  0.00     0.083 H 
HETATM   21  H9  UNL     1       2.291  -1.765  -0.892  1.00  0.00     0.084 H 
HETATM   22  H10 UNL     1       0.712   0.992   1.066  1.00  0.00     0.084 H 
HETATM   23  H11 UNL     1       2.954   0.432  -0.933  1.00  0.00     0.076 H 
HETATM   24  H12 UNL     1       3.246   1.736   1.696  1.00  0.00     0.032 H 
HETATM   25  H13 UNL     1       2.492   2.927   0.556  1.00  0.00     0.032 H 
HETATM   26  H14 UNL     1       4.102   2.202   0.176  1.00  0.00     0.032 H 
TER      27      UNL     1 
ENDMDL
