REMARK FAKE_HEAD_ATOM=C8_O1
REMARK REAL_HEAD_ATOM=C7_C4
REMARK DUMMY_ATOM=C8_H10_H11_H12_O1
MODEL 0
HETATM    1  N1  UNL     1       3.784  -0.114   0.134  1.00  0.00    -0.049 N 
HETATM    2  C1  UNL     1       2.353  -0.072   0.017  1.00  0.00     0.130 A 
HETATM    3  C2  UNL     1       1.612  -1.263  -0.062  1.00  0.00    -0.049 A 
HETATM    4  C3  UNL     1       0.223  -1.222  -0.217  1.00  0.00    -0.073 A 
HETATM    5  C4  UNL     1      -0.442   0.009  -0.323  1.00  0.00    -0.035 A 
HETATM    6  C5  UNL     1       0.298   1.199  -0.248  1.00  0.00    -0.073 A 
HETATM    7  C6  UNL     1       1.686   1.159  -0.093  1.00  0.00    -0.049 A 
HETATM    8  C7  UNL     1      -1.938   0.053  -0.451  1.00  0.00     0.043 C 
HETATM    9  O1  UNL     1      -2.505   0.087   0.841  1.00  0.00    -0.391 OA
HETATM   10  C8  UNL     1      -3.910   0.129   0.735  1.00  0.00     0.004 C 
HETATM   11  H1  UNL     1       4.132   0.729   0.644  1.00  0.00     0.281 HD
HETATM   12  H2  UNL     1       4.201  -0.140  -0.824  1.00  0.00     0.281 HD
HETATM   13  H3  UNL     1       4.081  -0.964   0.666  1.00  0.00     0.281 HD
HETATM   14  H4  UNL     1       2.111  -2.222   0.002  1.00  0.00     0.086 H 
HETATM   15  H5  UNL     1      -0.332  -2.151  -0.258  1.00  0.00     0.084 H 
HETATM   16  H6  UNL     1      -0.200   2.159  -0.314  1.00  0.00     0.084 H 
HETATM   17  H7  UNL     1       2.243   2.087  -0.054  1.00  0.00     0.086 H 
HETATM   18  H8  UNL     1      -2.283  -0.846  -1.012  1.00  0.00     0.081 H 
HETATM   19  H9  UNL     1      -2.227   0.957  -1.035  1.00  0.00     0.081 H 
HETATM   20  H10 UNL     1      -4.303  -0.780   0.228  1.00  0.00     0.066 H 
HETATM   21  H11 UNL     1      -4.247   1.047   0.204  1.00  0.00     0.066 H 
HETATM   22  H12 UNL     1      -4.341   0.156   1.756  1.00  0.00     0.066 H 
TER      23      UNL     1 
ENDMDL
