REMARK FAKE_HEAD_ATOM=C1_O1
REMARK REAL_HEAD_ATOM=C2_C3
REMARK DUMMY_ATOM=C1_H1_H2_H3_O1
REMARK TORSION=C7_C8_C9_C10
REMARK TORSION=C9_C10_C11_O2
MODEL 0
HETATM    1  C1  UNL     1       3.285  -1.775   0.941  1.00  0.00     0.004 C 
HETATM    2  O1  UNL     1       2.471  -0.633   1.086  1.00  0.00    -0.391 OA
HETATM    3  C2  UNL     1       1.431  -0.671   0.129  1.00  0.00     0.043 C 
HETATM    4  C3  UNL     1       0.583   0.583   0.203  1.00  0.00    -0.024 A 
HETATM    5  C4  UNL     1       1.148   1.780   0.688  1.00  0.00    -0.074 A 
HETATM    6  C5  UNL     1       0.391   2.949   0.764  1.00  0.00    -0.082 A 
HETATM    7  C6  UNL     1      -0.933   2.953   0.336  1.00  0.00    -0.082 A 
HETATM    8  C7  UNL     1      -1.504   1.791  -0.182  1.00  0.00    -0.072 A 
HETATM    9  C8  UNL     1      -0.761   0.596  -0.263  1.00  0.00    -0.028 A 
HETATM   10  C9  UNL     1      -1.365  -0.609  -0.890  1.00  0.00    -0.070 C 
HETATM   11  C10 UNL     1      -2.659  -0.921  -0.761  1.00  0.00    -0.046 C 
HETATM   12  C11 UNL     1      -3.213  -2.125  -1.391  1.00  0.00     0.108 C 
HETATM   13  O2  UNL     1      -4.431  -2.407  -1.244  1.00  0.00    -0.302 OA
HETATM   14  H1  UNL     1       2.704  -2.710   1.109  1.00  0.00     0.066 H 
HETATM   15  H2  UNL     1       3.776  -1.796  -0.057  1.00  0.00     0.066 H 
HETATM   16  H3  UNL     1       4.086  -1.737   1.708  1.00  0.00     0.066 H 
HETATM   17  H4  UNL     1       0.788  -1.558   0.330  1.00  0.00     0.081 H 
HETATM   18  H5  UNL     1       1.842  -0.739  -0.904  1.00  0.00     0.081 H 
HETATM   19  H6  UNL     1       2.180   1.816   1.013  1.00  0.00     0.084 H 
HETATM   20  H7  UNL     1       0.836   3.858   1.149  1.00  0.00     0.083 H 
HETATM   21  H8  UNL     1      -1.514   3.865   0.387  1.00  0.00     0.083 H 
HETATM   22  H9  UNL     1      -2.521   1.840  -0.552  1.00  0.00     0.084 H 
HETATM   23  H10 UNL     1      -0.721  -1.275  -1.451  1.00  0.00     0.085 H 
HETATM   24  H11 UNL     1      -3.321  -0.302  -0.167  1.00  0.00     0.088 H 
HETATM   25  H12 UNL     1      -2.585  -2.778  -1.983  1.00  0.00     0.150 H 
TER      26      UNL     1 
ENDMDL
