REMARK FAKE_HEAD_ATOM=C9_O2
REMARK REAL_HEAD_ATOM=C8_C7
REMARK DUMMY_ATOM=C9_H7_H8_H9_O2
REMARK TORSION=C3_C2_C1_O1
REMARK TORSION=C2_C1_N1_O3
MODEL 0
HETATM    1  O1  UNL     1      -1.169  -2.035   0.821  1.00  0.00    -0.265 OA
HETATM    2  C1  UNL     1      -1.632  -1.111   0.099  1.00  0.00     0.275 C 
HETATM    3  C2  UNL     1      -1.062   0.254   0.187  1.00  0.00     0.042 A 
HETATM    4  C3  UNL     1      -1.948   1.347   0.217  1.00  0.00    -0.067 A 
HETATM    5  C4  UNL     1      -1.470   2.648   0.372  1.00  0.00    -0.082 A 
HETATM    6  C5  UNL     1      -0.104   2.878   0.511  1.00  0.00    -0.082 A 
HETATM    7  C6  UNL     1       0.794   1.810   0.475  1.00  0.00    -0.074 A 
HETATM    8  C7  UNL     1       0.338   0.491   0.280  1.00  0.00    -0.019 A 
HETATM    9  C8  UNL     1       1.342  -0.643   0.220  1.00  0.00     0.044 C 
HETATM   10  O2  UNL     1       2.583  -0.185  -0.278  1.00  0.00    -0.391 OA
HETATM   11  C9  UNL     1       3.520  -1.238  -0.248  1.00  0.00     0.004 C 
HETATM   12  N1  UNL     1      -2.727  -1.389  -0.782  1.00  0.00    -0.233 N 
HETATM   13  O3  UNL     1      -3.297  -2.617  -0.804  1.00  0.00    -0.287 OA
HETATM   14  H1  UNL     1      -3.018   1.192   0.153  1.00  0.00     0.085 H 
HETATM   15  H2  UNL     1      -2.163   3.479   0.403  1.00  0.00     0.083 H 
HETATM   16  H3  UNL     1       0.263   3.887   0.649  1.00  0.00     0.083 H 
HETATM   17  H4  UNL     1       1.849   2.021   0.594  1.00  0.00     0.084 H 
HETATM   18  H5  UNL     1       0.956  -1.439  -0.455  1.00  0.00     0.081 H 
HETATM   19  H6  UNL     1       1.453  -1.049   1.252  1.00  0.00     0.081 H 
HETATM   20  H7  UNL     1       4.482  -0.867  -0.656  1.00  0.00     0.066 H 
HETATM   21  H8  UNL     1       3.707  -1.581   0.794  1.00  0.00     0.066 H 
HETATM   22  H9  UNL     1       3.191  -2.090  -0.885  1.00  0.00     0.066 H 
HETATM   23  H10 UNL     1      -3.093  -0.649  -1.422  1.00  0.00     0.197 HD
HETATM   24  H11 UNL     1      -2.795  -3.117  -1.498  1.00  0.00     0.244 HD
TER      25      UNL     1 
ENDMDL
