REMARK FAKE_HEAD_ATOM=C8_O3
REMARK REAL_HEAD_ATOM=C7_C6
REMARK DUMMY_ATOM=C8_H8_H9_H10_O3
REMARK TORSION=C3_C2_C1_O1
REMARK TORSION=C2_C1_N1_O2
MODEL 0
HETATM    1  O1  UNL     1       3.061   0.155  -1.476  1.00  0.00    -0.265 OA
HETATM    2  C1  UNL     1       2.740   0.256  -0.261  1.00  0.00     0.275 C 
HETATM    3  N1  UNL     1       3.677   0.829   0.661  1.00  0.00    -0.233 N 
HETATM    4  O2  UNL     1       4.935   1.129   0.259  1.00  0.00    -0.287 OA
HETATM    5  C2  UNL     1       1.401  -0.203   0.182  1.00  0.00     0.034 A 
HETATM    6  C3  UNL     1       1.164  -0.580   1.517  1.00  0.00    -0.068 A 
HETATM    7  C4  UNL     1      -0.103  -1.010   1.917  1.00  0.00    -0.081 A 
HETATM    8  C5  UNL     1      -1.147  -1.079   0.992  1.00  0.00    -0.075 A 
HETATM    9  C6  UNL     1      -0.927  -0.725  -0.347  1.00  0.00    -0.034 A 
HETATM   10  C7  UNL     1      -2.052  -0.781  -1.347  1.00  0.00     0.043 C 
HETATM   11  O3  UNL     1      -2.433   0.524  -1.739  1.00  0.00    -0.391 OA
HETATM   12  C8  UNL     1      -3.403   1.037  -0.852  1.00  0.00     0.004 C 
HETATM   13  C9  UNL     1       0.346  -0.287  -0.745  1.00  0.00    -0.059 A 
HETATM   14  H1  UNL     1       3.399   1.053   1.641  1.00  0.00     0.197 HD
HETATM   15  H2  UNL     1       4.882   2.065  -0.066  1.00  0.00     0.244 HD
HETATM   16  H3  UNL     1       1.958  -0.567   2.251  1.00  0.00     0.085 H 
HETATM   17  H4  UNL     1      -0.276  -1.297   2.946  1.00  0.00     0.083 H 
HETATM   18  H5  UNL     1      -2.125  -1.409   1.320  1.00  0.00     0.084 H 
HETATM   19  H6  UNL     1      -2.909  -1.388  -0.968  1.00  0.00     0.081 H 
HETATM   20  H7  UNL     1      -1.688  -1.316  -2.249  1.00  0.00     0.081 H 
HETATM   21  H8  UNL     1      -3.027   1.060   0.195  1.00  0.00     0.066 H 
HETATM   22  H9  UNL     1      -4.347   0.452  -0.913  1.00  0.00     0.066 H 
HETATM   23  H10 UNL     1      -3.635   2.080  -1.147  1.00  0.00     0.066 H 
HETATM   24  H11 UNL     1       0.507   0.000  -1.778  1.00  0.00     0.086 H 
TER      25      UNL     1 
ENDMDL
