REMARK FAKE_HEAD_ATOM=C1_O1
REMARK REAL_HEAD_ATOM=C2_C3
REMARK DUMMY_ATOM=C1_H1_H2_H3_O1
REMARK TORSION=C4_C5_C6_C7
REMARK TORSION=C6_C7_C8_O2
MODEL 0
HETATM    1  C1  UNL     1       3.969   1.248   0.702  1.00  0.00     0.004 C 
HETATM    2  O1  UNL     1       2.851   0.791  -0.024  1.00  0.00    -0.391 OA
HETATM    3  C2  UNL     1       2.187  -0.210   0.717  1.00  0.00     0.043 C 
HETATM    4  C3  UNL     1       0.996  -0.684  -0.064  1.00  0.00    -0.034 A 
HETATM    5  C4  UNL     1      -0.237  -0.019   0.052  1.00  0.00    -0.065 A 
HETATM    6  C5  UNL     1      -1.351  -0.435  -0.705  1.00  0.00    -0.036 A 
HETATM    7  C6  UNL     1      -2.671   0.237  -0.617  1.00  0.00    -0.070 C 
HETATM    8  C7  UNL     1      -3.069   0.960   0.440  1.00  0.00    -0.046 C 
HETATM    9  C8  UNL     1      -4.391   1.603   0.499  1.00  0.00     0.108 C 
HETATM   10  O2  UNL     1      -5.206   1.521  -0.459  1.00  0.00    -0.302 OA
HETATM   11  C9  UNL     1      -1.199  -1.500  -1.607  1.00  0.00    -0.073 A 
HETATM   12  C10 UNL     1       0.030  -2.151  -1.737  1.00  0.00    -0.082 A 
HETATM   13  C11 UNL     1       1.124  -1.745  -0.973  1.00  0.00    -0.075 A 
HETATM   14  H1  UNL     1       3.663   1.706   1.669  1.00  0.00     0.066 H 
HETATM   15  H2  UNL     1       4.481   2.032   0.107  1.00  0.00     0.066 H 
HETATM   16  H3  UNL     1       4.701   0.427   0.875  1.00  0.00     0.066 H 
HETATM   17  H4  UNL     1       2.865  -1.074   0.911  1.00  0.00     0.081 H 
HETATM   18  H5  UNL     1       1.843   0.187   1.701  1.00  0.00     0.081 H 
HETATM   19  H6  UNL     1      -0.306   0.834   0.715  1.00  0.00     0.085 H 
HETATM   20  H7  UNL     1      -3.360   0.091  -1.441  1.00  0.00     0.084 H 
HETATM   21  H8  UNL     1      -2.432   1.074   1.305  1.00  0.00     0.088 H 
HETATM   22  H9  UNL     1      -4.669   2.159   1.384  1.00  0.00     0.150 H 
HETATM   23  H10 UNL     1      -2.035  -1.832  -2.211  1.00  0.00     0.084 H 
HETATM   24  H11 UNL     1       0.135  -2.971  -2.437  1.00  0.00     0.083 H 
HETATM   25  H12 UNL     1       2.073  -2.252  -1.093  1.00  0.00     0.084 H 
TER      26      UNL     1 
ENDMDL
