REMARK FAKE_HEAD_ATOM=C7_O2
REMARK REAL_HEAD_ATOM=C6_C5
REMARK DUMMY_ATOM=C7_H7_H8_H9_O2
REMARK TORSION=C3_C2_C1_N1
REMARK TORSION=C2_C1_N1_O1
MODEL 0
HETATM    1  O1  UNL     1      -5.297   0.428  -0.023  1.00  0.00    -0.287 OA
HETATM    2  N1  UNL     1      -3.989   0.504  -0.368  1.00  0.00    -0.233 N 
HETATM    3  C1  UNL     1      -3.037  -0.403   0.202  1.00  0.00     0.275 C 
HETATM    4  C2  UNL     1      -1.585  -0.272  -0.071  1.00  0.00     0.034 A 
HETATM    5  C3  UNL     1      -1.023   0.961  -0.449  1.00  0.00    -0.067 A 
HETATM    6  C4  UNL     1       0.349   1.069  -0.696  1.00  0.00    -0.074 A 
HETATM    7  C5  UNL     1       1.183  -0.050  -0.569  1.00  0.00    -0.035 A 
HETATM    8  C6  UNL     1       2.663   0.080  -0.816  1.00  0.00     0.043 C 
HETATM    9  O2  UNL     1       3.269   0.855   0.201  1.00  0.00    -0.391 OA
HETATM   10  C7  UNL     1       3.646   0.031   1.283  1.00  0.00     0.004 C 
HETATM   11  C8  UNL     1       0.631  -1.277  -0.174  1.00  0.00    -0.074 A 
HETATM   12  C9  UNL     1      -0.740  -1.387   0.074  1.00  0.00    -0.067 A 
HETATM   13  O3  UNL     1      -3.449  -1.340   0.939  1.00  0.00    -0.265 OA
HETATM   14  H1  UNL     1      -5.398   1.068   0.728  1.00  0.00     0.244 HD
HETATM   15  H2  UNL     1      -3.708   1.183  -1.108  1.00  0.00     0.197 HD
HETATM   16  H3  UNL     1      -1.631   1.851  -0.530  1.00  0.00     0.085 H 
HETATM   17  H4  UNL     1       0.763   2.029  -0.979  1.00  0.00     0.084 H 
HETATM   18  H5  UNL     1       2.808   0.609  -1.782  1.00  0.00     0.081 H 
HETATM   19  H6  UNL     1       3.146  -0.917  -0.949  1.00  0.00     0.081 H 
HETATM   20  H7  UNL     1       2.773  -0.513   1.705  1.00  0.00     0.066 H 
HETATM   21  H8  UNL     1       4.442  -0.685   0.980  1.00  0.00     0.066 H 
HETATM   22  H9  UNL     1       4.061   0.673   2.087  1.00  0.00     0.066 H 
HETATM   23  H10 UNL     1       1.262  -2.150  -0.056  1.00  0.00     0.084 H 
HETATM   24  H11 UNL     1      -1.141  -2.348   0.372  1.00  0.00     0.085 H 
TER      25      UNL     1 
ENDMDL
