REMARK FAKE_HEAD_ATOM=C9_O2
REMARK REAL_HEAD_ATOM=C8_C7
REMARK DUMMY_ATOM=C9_H7_H8_H9_O2
REMARK TORSION=C5_C4_C3_C2
REMARK TORSION=C3_C2_C1_O1
MODEL 0
HETATM    1  O1  UNL     1       6.251  -1.156  -0.149  1.00  0.00    -0.645 OA
HETATM    2  C1  UNL     1       5.333  -0.138  -0.374  1.00  0.00     0.198 C 
HETATM    3  C2  UNL     1       3.893  -0.426  -0.263  1.00  0.00    -0.009 C 
HETATM    4  C3  UNL     1       2.957   0.508  -0.490  1.00  0.00    -0.067 C 
HETATM    5  C4  UNL     1       1.499   0.252  -0.399  1.00  0.00    -0.036 A 
HETATM    6  C5  UNL     1       0.960  -0.813   0.350  1.00  0.00    -0.072 A 
HETATM    7  C6  UNL     1      -0.423  -1.006   0.414  1.00  0.00    -0.074 A 
HETATM    8  C7  UNL     1      -1.293  -0.145  -0.269  1.00  0.00    -0.035 A 
HETATM    9  C8  UNL     1      -2.779  -0.330  -0.166  1.00  0.00     0.043 C 
HETATM   10  O2  UNL     1      -3.253   0.392   0.949  1.00  0.00    -0.391 OA
HETATM   11  C9  UNL     1      -4.649   0.226   1.057  1.00  0.00     0.004 C 
HETATM   12  C10 UNL     1      -0.763   0.936  -0.988  1.00  0.00    -0.074 A 
HETATM   13  C11 UNL     1       0.620   1.131  -1.053  1.00  0.00    -0.072 A 
HETATM   14  O3  UNL     1       5.747   1.015  -0.667  1.00  0.00    -0.645 OA
HETATM   15  H1  UNL     1       3.613  -1.439  -0.013  1.00  0.00     0.094 H 
HETATM   16  H2  UNL     1       3.270   1.499  -0.798  1.00  0.00     0.085 H 
HETATM   17  H3  UNL     1       1.596  -1.484   0.911  1.00  0.00     0.084 H 
HETATM   18  H4  UNL     1      -0.816  -1.825   1.004  1.00  0.00     0.084 H 
HETATM   19  H5  UNL     1      -3.004  -1.417  -0.060  1.00  0.00     0.081 H 
HETATM   20  H6  UNL     1      -3.258   0.032  -1.106  1.00  0.00     0.081 H 
HETATM   21  H7  UNL     1      -4.916  -0.842   1.220  1.00  0.00     0.066 H 
HETATM   22  H8  UNL     1      -5.006   0.799   1.937  1.00  0.00     0.066 H 
HETATM   23  H9  UNL     1      -5.173   0.626   0.160  1.00  0.00     0.066 H 
HETATM   24  H10 UNL     1      -1.420   1.629  -1.499  1.00  0.00     0.084 H 
HETATM   25  H11 UNL     1       1.005   1.970  -1.620  1.00  0.00     0.084 H 
TER      26      UNL     1 
ENDMDL
