REMARK FAKE_HEAD_ATOM=C11_O2
REMARK REAL_HEAD_ATOM=C10_C7
REMARK DUMMY_ATOM=C11_H10_H11_H12_O2
REMARK TORSION=C5_C4_C3_C2
REMARK TORSION=C3_C2_C1_O1
MODEL 0
HETATM    1  O1  UNL     1       5.937   1.053   0.190  1.00  0.00    -0.302 OA
HETATM    2  C1  UNL     1       5.032   0.706  -0.613  1.00  0.00     0.108 C 
HETATM    3  C2  UNL     1       3.668   0.474  -0.124  1.00  0.00    -0.046 C 
HETATM    4  C3  UNL     1       2.695   0.088  -0.959  1.00  0.00    -0.070 C 
HETATM    5  C4  UNL     1       1.298  -0.177  -0.534  1.00  0.00    -0.036 A 
HETATM    6  C5  UNL     1       0.754   0.348   0.655  1.00  0.00    -0.072 A 
HETATM    7  C6  UNL     1      -0.572   0.078   1.007  1.00  0.00    -0.074 A 
HETATM    8  C7  UNL     1      -1.378  -0.716   0.178  1.00  0.00    -0.035 A 
HETATM    9  C8  UNL     1      -0.847  -1.222  -1.016  1.00  0.00    -0.074 A 
HETATM   10  C9  UNL     1       0.478  -0.952  -1.370  1.00  0.00    -0.072 A 
HETATM   11  C10 UNL     1      -2.814  -0.992   0.541  1.00  0.00     0.043 C 
HETATM   12  O2  UNL     1      -3.687  -0.304  -0.334  1.00  0.00    -0.391 OA
HETATM   13  C11 UNL     1      -3.942   0.996   0.152  1.00  0.00     0.004 C 
HETATM   14  H1  UNL     1       5.273   0.584  -1.662  1.00  0.00     0.150 H 
HETATM   15  H2  UNL     1       3.483   0.599   0.934  1.00  0.00     0.088 H 
HETATM   16  H3  UNL     1       2.943  -0.080  -2.001  1.00  0.00     0.084 H 
HETATM   17  H4  UNL     1       1.333   0.987   1.306  1.00  0.00     0.084 H 
HETATM   18  H5  UNL     1      -0.973   0.497   1.922  1.00  0.00     0.084 H 
HETATM   19  H6  UNL     1      -1.461  -1.824  -1.675  1.00  0.00     0.084 H 
HETATM   20  H7  UNL     1       0.866  -1.357  -2.297  1.00  0.00     0.084 H 
HETATM   21  H8  UNL     1      -2.999  -2.081   0.424  1.00  0.00     0.081 H 
HETATM   22  H9  UNL     1      -3.014  -0.773   1.617  1.00  0.00     0.081 H 
HETATM   23  H10 UNL     1      -4.578   1.530  -0.583  1.00  0.00     0.066 H 
HETATM   24  H11 UNL     1      -3.002   1.579   0.268  1.00  0.00     0.066 H 
HETATM   25  H12 UNL     1      -4.498   0.959   1.115  1.00  0.00     0.066 H 
TER      26      UNL     1 
ENDMDL
