REMARK FAKE_HEAD_ATOM=C1_O1
REMARK REAL_HEAD_ATOM=C2_C3
REMARK DUMMY_ATOM=C1_H1_H2_H3_O1
MODEL 0
HETATM    1  C1  UNL     1      -3.686  -0.833   0.145  1.00  0.00     0.004 C 
HETATM    2  O1  UNL     1      -2.413  -0.416  -0.294  1.00  0.00    -0.391 OA
HETATM    3  C2  UNL     1      -1.611  -0.102   0.825  1.00  0.00     0.043 C 
HETATM    4  C3  UNL     1      -0.259   0.338   0.344  1.00  0.00    -0.033 A 
HETATM    5  C4  UNL     1      -0.016   1.690   0.056  1.00  0.00    -0.075 A 
HETATM    6  C5  UNL     1       1.235   2.096  -0.416  1.00  0.00    -0.080 A 
HETATM    7  C6  UNL     1       2.247   1.155  -0.622  1.00  0.00    -0.050 A 
HETATM    8  C7  UNL     1       2.008  -0.207  -0.376  1.00  0.00     0.130 A 
HETATM    9  N1  UNL     1       3.057  -1.171  -0.556  1.00  0.00    -0.049 N 
HETATM   10  C8  UNL     1       0.755  -0.608   0.119  1.00  0.00    -0.042 A 
HETATM   11  H1  UNL     1      -4.205  -0.023   0.705  1.00  0.00     0.066 H 
HETATM   12  H2  UNL     1      -4.304  -1.075  -0.744  1.00  0.00     0.066 H 
HETATM   13  H3  UNL     1      -3.617  -1.753   0.767  1.00  0.00     0.066 H 
HETATM   14  H4  UNL     1      -2.071   0.717   1.425  1.00  0.00     0.081 H 
HETATM   15  H5  UNL     1      -1.491  -0.990   1.488  1.00  0.00     0.081 H 
HETATM   16  H6  UNL     1      -0.793   2.431   0.202  1.00  0.00     0.084 H 
HETATM   17  H7  UNL     1       1.420   3.142  -0.622  1.00  0.00     0.083 H 
HETATM   18  H8  UNL     1       3.214   1.485  -0.978  1.00  0.00     0.086 H 
HETATM   19  H9  UNL     1       2.657  -2.098  -0.826  1.00  0.00     0.281 HD
HETATM   20  H10 UNL     1       3.587  -1.266   0.340  1.00  0.00     0.281 HD
HETATM   21  H11 UNL     1       3.709  -0.864  -1.315  1.00  0.00     0.281 HD
HETATM   22  H12 UNL     1       0.571  -1.655   0.327  1.00  0.00     0.087 H 
TER      23      UNL     1 
ENDMDL
