REMARK FAKE_HEAD_ATOM=C10_O1
REMARK REAL_HEAD_ATOM=C9_C8
REMARK DUMMY_ATOM=C10_H10_H11_H12_O1
REMARK TORSION=C4_C3_C2_C11
REMARK TORSION=C3_C2_C11_C12
MODEL 0
HETATM    1  C1  UNL     1      -1.139   1.588  -0.342  1.00  0.00    -0.065 C 
HETATM    2  C2  UNL     1      -1.341   0.074  -0.038  1.00  0.00    -0.020 C 
HETATM    3  C3  UNL     1      -0.185  -0.799  -0.635  1.00  0.00    -0.042 C 
HETATM    4  C4  UNL     1      -0.502  -2.087  -1.149  1.00  0.00    -0.075 C 
HETATM    5  C5  UNL     1       0.446  -2.882  -1.787  1.00  0.00    -0.082 C 
HETATM    6  C6  UNL     1       1.751  -2.439  -1.919  1.00  0.00    -0.082 C 
HETATM    7  C7  UNL     1       2.131  -1.229  -1.355  1.00  0.00    -0.074 C 
HETATM    8  C8  UNL     1       1.211  -0.426  -0.643  1.00  0.00    -0.028 C 
HETATM    9  C9  UNL     1       1.764   0.812   0.043  1.00  0.00     0.043 C 
HETATM   10  O1  UNL     1       3.139   0.658   0.345  1.00  0.00    -0.391 OA
HETATM   11  C10 UNL     1       3.639   1.855   0.897  1.00  0.00     0.004 C 
HETATM   12  C11 UNL     1      -1.418  -0.201   1.495  1.00  0.00    -0.058 C 
HETATM   13  C12 UNL     1      -2.484   0.606   2.247  1.00  0.00    -0.076 C 
HETATM   14  C13 UNL     1      -2.712  -0.300  -0.685  1.00  0.00    -0.065 C 
HETATM   15  H1  UNL     1      -0.718   1.730  -1.361  1.00  0.00     0.028 H 
HETATM   16  H2  UNL     1      -0.504   2.096   0.406  1.00  0.00     0.028 H 
HETATM   17  H3  UNL     1      -2.095   2.153  -0.307  1.00  0.00     0.028 H 
HETATM   18  H4  UNL     1      -1.493  -2.504  -1.081  1.00  0.00     0.084 H 
HETATM   19  H5  UNL     1       0.161  -3.844  -2.192  1.00  0.00     0.083 H 
HETATM   20  H6  UNL     1       2.480  -3.049  -2.438  1.00  0.00     0.083 H 
HETATM   21  H7  UNL     1       3.167  -0.933  -1.461  1.00  0.00     0.084 H 
HETATM   22  H8  UNL     1       1.232   0.968   0.998  1.00  0.00     0.081 H 
HETATM   23  H9  UNL     1       1.615   1.677  -0.641  1.00  0.00     0.081 H 
HETATM   24  H10 UNL     1       3.108   2.120   1.838  1.00  0.00     0.066 H 
HETATM   25  H11 UNL     1       4.710   1.709   1.146  1.00  0.00     0.066 H 
HETATM   26  H12 UNL     1       3.576   2.692   0.166  1.00  0.00     0.066 H 
HETATM   27  H13 UNL     1      -1.626  -1.281   1.661  1.00  0.00     0.034 H 
HETATM   28  H14 UNL     1      -0.444  -0.002   1.980  1.00  0.00     0.034 H 
HETATM   29  H15 UNL     1      -3.503   0.351   1.892  1.00  0.00     0.027 H 
HETATM   30  H16 UNL     1      -2.431   0.361   3.329  1.00  0.00     0.027 H 
HETATM   31  H17 UNL     1      -2.312   1.697   2.135  1.00  0.00     0.027 H 
HETATM   32  H18 UNL     1      -3.504   0.442  -0.450  1.00  0.00     0.028 H 
HETATM   33  H19 UNL     1      -3.098  -1.270  -0.306  1.00  0.00     0.028 H 
HETATM   34  H20 UNL     1      -2.622  -0.344  -1.792  1.00  0.00     0.028 H 
TER      35      UNL     1 
ENDMDL
