REMARK FAKE_HEAD_ATOM=C11_O1
REMARK REAL_HEAD_ATOM=C10_C7
REMARK DUMMY_ATOM=C11_H12_H13_H14_O1
REMARK TORSION=C5_C4_C3_C2
REMARK TORSION=C4_C3_C2_C1
MODEL 0
HETATM    1  C1  UNL     1      -3.539   1.704   1.120  1.00  0.00    -0.076 C 
HETATM    2  C2  UNL     1      -2.109   1.259   0.791  1.00  0.00    -0.058 C 
HETATM    3  C3  UNL     1      -1.983  -0.145   0.126  1.00  0.00    -0.021 C 
HETATM    4  C4  UNL     1      -0.480  -0.410  -0.124  1.00  0.00    -0.050 A 
HETATM    5  C5  UNL     1       0.277  -1.307   0.667  1.00  0.00    -0.075 A 
HETATM    6  C6  UNL     1       1.643  -1.496   0.434  1.00  0.00    -0.074 A 
HETATM    7  C7  UNL     1       2.296  -0.788  -0.580  1.00  0.00    -0.035 A 
HETATM    8  C8  UNL     1       1.572   0.132  -1.347  1.00  0.00    -0.074 A 
HETATM    9  C9  UNL     1       0.207   0.324  -1.119  1.00  0.00    -0.075 A 
HETATM   10  C10 UNL     1       3.772  -0.980  -0.805  1.00  0.00     0.043 C 
HETATM   11  O1  UNL     1       4.513  -0.447   0.275  1.00  0.00    -0.391 OA
HETATM   12  C11 UNL     1       4.781   0.921   0.055  1.00  0.00     0.004 C 
HETATM   13  C12 UNL     1      -2.743  -0.186  -1.225  1.00  0.00    -0.065 C 
HETATM   14  C13 UNL     1      -2.616  -1.226   1.042  1.00  0.00    -0.065 C 
HETATM   15  H1  UNL     1      -4.002   1.037   1.876  1.00  0.00     0.027 H 
HETATM   16  H2  UNL     1      -3.511   2.729   1.547  1.00  0.00     0.027 H 
HETATM   17  H3  UNL     1      -4.169   1.734   0.207  1.00  0.00     0.027 H 
HETATM   18  H4  UNL     1      -1.520   1.270   1.735  1.00  0.00     0.034 H 
HETATM   19  H5  UNL     1      -1.664   2.030   0.125  1.00  0.00     0.034 H 
HETATM   20  H6  UNL     1      -0.165  -1.871   1.474  1.00  0.00     0.084 H 
HETATM   21  H7  UNL     1       2.194  -2.193   1.053  1.00  0.00     0.084 H 
HETATM   22  H8  UNL     1       2.065   0.711  -2.118  1.00  0.00     0.084 H 
HETATM   23  H9  UNL     1      -0.305   1.063  -1.718  1.00  0.00     0.084 H 
HETATM   24  H10 UNL     1       3.976  -2.071  -0.855  1.00  0.00     0.081 H 
HETATM   25  H11 UNL     1       4.093  -0.575  -1.795  1.00  0.00     0.081 H 
HETATM   26  H12 UNL     1       5.309   1.324   0.943  1.00  0.00     0.066 H 
HETATM   27  H13 UNL     1       3.843   1.505  -0.071  1.00  0.00     0.066 H 
HETATM   28  H14 UNL     1       5.447   1.060  -0.824  1.00  0.00     0.066 H 
HETATM   29  H15 UNL     1      -3.843  -0.207  -1.073  1.00  0.00     0.028 H 
HETATM   30  H16 UNL     1      -2.468  -1.099  -1.796  1.00  0.00     0.028 H 
HETATM   31  H17 UNL     1      -2.521   0.704  -1.849  1.00  0.00     0.028 H 
HETATM   32  H18 UNL     1      -2.399  -2.244   0.653  1.00  0.00     0.028 H 
HETATM   33  H19 UNL     1      -2.235  -1.140   2.083  1.00  0.00     0.028 H 
HETATM   34  H20 UNL     1      -3.721  -1.126   1.087  1.00  0.00     0.028 H 
TER      35      UNL     1 
ENDMDL
