REMARK FAKE_HEAD_ATOM=C10_O2
REMARK REAL_HEAD_ATOM=C9_C8
REMARK DUMMY_ATOM=C10_H12_H13_H14_O2
REMARK TORSION=C6_C5_C4_C3
REMARK TORSION=C5_C4_C3_C1
REMARK TORSION=C4_C3_C1_O1
MODEL 0
HETATM    1  O1  UNL     1       4.317  -1.364   1.813  1.00  0.00    -0.298 OA
HETATM    2  C1  UNL     1       3.821  -0.281   1.542  1.00  0.00     0.123 C 
HETATM    3  C2  UNL     1       4.668   0.955   1.579  1.00  0.00    -0.021 C 
HETATM    4  C3  UNL     1       2.360  -0.194   1.195  1.00  0.00    -0.006 C 
HETATM    5  C4  UNL     1       2.072  -0.905  -0.130  1.00  0.00    -0.035 C 
HETATM    6  C5  UNL     1       0.612  -0.797  -0.481  1.00  0.00    -0.058 A 
HETATM    7  C6  UNL     1       0.142   0.297  -1.225  1.00  0.00    -0.076 A 
HETATM    8  C7  UNL     1      -1.219   0.416  -1.522  1.00  0.00    -0.074 A 
HETATM    9  C8  UNL     1      -2.129  -0.555  -1.076  1.00  0.00    -0.035 A 
HETATM   10  C9  UNL     1      -3.599  -0.420  -1.372  1.00  0.00     0.043 C 
HETATM   11  O2  UNL     1      -4.317  -0.119  -0.192  1.00  0.00    -0.391 OA
HETATM   12  C10 UNL     1      -4.353   1.277   0.015  1.00  0.00     0.004 C 
HETATM   13  C11 UNL     1      -1.662  -1.637  -0.315  1.00  0.00    -0.074 A 
HETATM   14  C12 UNL     1      -0.301  -1.757  -0.017  1.00  0.00    -0.076 A 
HETATM   15  H1  UNL     1       4.281   1.648   2.354  1.00  0.00     0.037 H 
HETATM   16  H2  UNL     1       4.636   1.458   0.590  1.00  0.00     0.037 H 
HETATM   17  H3  UNL     1       5.723   0.702   1.818  1.00  0.00     0.037 H 
HETATM   18  H4  UNL     1       2.055   0.873   1.114  1.00  0.00     0.044 H 
HETATM   19  H5  UNL     1       1.767  -0.659   2.013  1.00  0.00     0.044 H 
HETATM   20  H6  UNL     1       2.688  -0.453  -0.939  1.00  0.00     0.040 H 
HETATM   21  H7  UNL     1       2.360  -1.977  -0.054  1.00  0.00     0.040 H 
HETATM   22  H8  UNL     1       0.829   1.060  -1.571  1.00  0.00     0.084 H 
HETATM   23  H9  UNL     1      -1.563   1.268  -2.096  1.00  0.00     0.084 H 
HETATM   24  H10 UNL     1      -3.966  -1.396  -1.756  1.00  0.00     0.081 H 
HETATM   25  H11 UNL     1      -3.787   0.311  -2.194  1.00  0.00     0.081 H 
HETATM   26  H12 UNL     1      -4.868   1.479   0.976  1.00  0.00     0.066 H 
HETATM   27  H13 UNL     1      -3.329   1.705   0.087  1.00  0.00     0.066 H 
HETATM   28  H14 UNL     1      -4.931   1.784  -0.789  1.00  0.00     0.066 H 
HETATM   29  H15 UNL     1      -2.353  -2.386   0.052  1.00  0.00     0.084 H 
HETATM   30  H16 UNL     1       0.040  -2.595   0.577  1.00  0.00     0.084 H 
TER      31      UNL     1 
ENDMDL
