REMARK FAKE_HEAD_ATOM=C9_O1
REMARK REAL_HEAD_ATOM=C8_C7
REMARK DUMMY_ATOM=C9_H11_H12_H13_O1
REMARK TORSION=C6_C5_C4_C3
REMARK TORSION=C5_C4_C3_C2
REMARK TORSION=C4_C3_C2_C1
MODEL 0
HETATM    1  C1  UNL     1       4.573   0.027   1.422  1.00  0.00    -0.021 C 
HETATM    2  C2  UNL     1       3.748   1.037   0.667  1.00  0.00     0.123 C 
HETATM    3  C3  UNL     1       2.406   0.748   0.024  1.00  0.00    -0.006 C 
HETATM    4  C4  UNL     1       1.895  -0.691   0.180  1.00  0.00    -0.035 C 
HETATM    5  C5  UNL     1       0.560  -0.851  -0.498  1.00  0.00    -0.057 A 
HETATM    6  C6  UNL     1      -0.627  -0.576   0.201  1.00  0.00    -0.069 A 
HETATM    7  C7  UNL     1      -1.874  -0.699  -0.435  1.00  0.00    -0.034 A 
HETATM    8  C8  UNL     1      -3.137  -0.370   0.307  1.00  0.00     0.043 C 
HETATM    9  O1  UNL     1      -3.401   1.009   0.167  1.00  0.00    -0.391 OA
HETATM   10  C9  UNL     1      -4.583   1.332   0.864  1.00  0.00     0.004 C 
HETATM   11  C10 UNL     1      -1.923  -1.063  -1.789  1.00  0.00    -0.075 A 
HETATM   12  C11 UNL     1      -0.744  -1.325  -2.492  1.00  0.00    -0.082 A 
HETATM   13  C12 UNL     1       0.493  -1.218  -1.852  1.00  0.00    -0.077 A 
HETATM   14  O2  UNL     1       4.192   2.170   0.566  1.00  0.00    -0.298 OA
HETATM   15  H1  UNL     1       5.563  -0.076   0.930  1.00  0.00     0.037 H 
HETATM   16  H2  UNL     1       4.112  -0.976   1.474  1.00  0.00     0.037 H 
HETATM   17  H3  UNL     1       4.729   0.387   2.461  1.00  0.00     0.037 H 
HETATM   18  H4  UNL     1       2.488   0.982  -1.060  1.00  0.00     0.044 H 
HETATM   19  H5  UNL     1       1.658   1.443   0.464  1.00  0.00     0.044 H 
HETATM   20  H6  UNL     1       1.791  -0.938   1.259  1.00  0.00     0.040 H 
HETATM   21  H7  UNL     1       2.624  -1.400  -0.270  1.00  0.00     0.040 H 
HETATM   22  H8  UNL     1      -0.581  -0.263   1.238  1.00  0.00     0.085 H 
HETATM   23  H9  UNL     1      -3.974  -0.978  -0.107  1.00  0.00     0.081 H 
HETATM   24  H10 UNL     1      -3.010  -0.643   1.381  1.00  0.00     0.081 H 
HETATM   25  H11 UNL     1      -5.459   0.786   0.448  1.00  0.00     0.066 H 
HETATM   26  H12 UNL     1      -4.478   1.128   1.953  1.00  0.00     0.066 H 
HETATM   27  H13 UNL     1      -4.779   2.418   0.744  1.00  0.00     0.066 H 
HETATM   28  H14 UNL     1      -2.874  -1.139  -2.303  1.00  0.00     0.084 H 
HETATM   29  H15 UNL     1      -0.789  -1.604  -3.537  1.00  0.00     0.083 H 
HETATM   30  H16 UNL     1       1.398  -1.413  -2.412  1.00  0.00     0.084 H 
TER      31      UNL     1 
ENDMDL
