REMARK FAKE_HEAD_ATOM=C11_O2
REMARK REAL_HEAD_ATOM=C10_C9
REMARK DUMMY_ATOM=C11_H9_H10_H11_O2
REMARK TORSION=C5_C4_C3_C2
REMARK TORSION=C3_C2_C1_O1
MODEL 0
HETATM    1  O1  UNL     1       4.699  -1.921  -1.102  1.00  0.00    -0.645 OA
HETATM    2  C1  UNL     1       3.491  -1.681  -1.363  1.00  0.00     0.198 C 
HETATM    3  C2  UNL     1       2.776  -0.646  -0.599  1.00  0.00    -0.009 C 
HETATM    4  C3  UNL     1       1.487  -0.363  -0.822  1.00  0.00    -0.066 C 
HETATM    5  C4  UNL     1       0.747   0.673  -0.056  1.00  0.00    -0.028 A 
HETATM    6  C5  UNL     1       1.403   1.860   0.328  1.00  0.00    -0.072 A 
HETATM    7  C6  UNL     1       0.710   2.877   0.985  1.00  0.00    -0.082 A 
HETATM    8  C7  UNL     1      -0.649   2.737   1.252  1.00  0.00    -0.082 A 
HETATM    9  C8  UNL     1      -1.320   1.574   0.875  1.00  0.00    -0.074 A 
HETATM   10  C9  UNL     1      -0.634   0.516   0.244  1.00  0.00    -0.024 A 
HETATM   11  C10 UNL     1      -1.390  -0.736  -0.156  1.00  0.00     0.043 C 
HETATM   12  O2  UNL     1      -2.520  -0.927   0.672  1.00  0.00    -0.391 OA
HETATM   13  C11 UNL     1      -3.244  -2.053   0.227  1.00  0.00     0.004 C 
HETATM   14  O3  UNL     1       2.855  -2.397  -2.370  1.00  0.00    -0.645 OA
HETATM   15  H1  UNL     1       3.322  -0.127   0.179  1.00  0.00     0.094 H 
HETATM   16  H2  UNL     1       0.945  -0.927  -1.572  1.00  0.00     0.085 H 
HETATM   17  H3  UNL     1       2.447   2.021   0.091  1.00  0.00     0.084 H 
HETATM   18  H4  UNL     1       1.225   3.786   1.269  1.00  0.00     0.083 H 
HETATM   19  H5  UNL     1      -1.188   3.536   1.745  1.00  0.00     0.083 H 
HETATM   20  H6  UNL     1      -2.381   1.503   1.082  1.00  0.00     0.084 H 
HETATM   21  H7  UNL     1      -0.717  -1.617  -0.057  1.00  0.00     0.081 H 
HETATM   22  H8  UNL     1      -1.693  -0.619  -1.222  1.00  0.00     0.081 H 
HETATM   23  H9  UNL     1      -3.631  -1.900  -0.805  1.00  0.00     0.066 H 
HETATM   24  H10 UNL     1      -4.117  -2.197   0.895  1.00  0.00     0.066 H 
HETATM   25  H11 UNL     1      -2.625  -2.976   0.278  1.00  0.00     0.066 H 
TER      26      UNL     1 
ENDMDL
