REMARK FAKE_HEAD_ATOM=C10_O3
REMARK REAL_HEAD_ATOM=C9_C8
REMARK DUMMY_ATOM=C10_H8_H9_H10_O3
REMARK TORSION=C5_C4_C3_C2
REMARK TORSION=C3_C2_C1_O1
MODEL 0
HETATM    1  O1  UNL     1      -4.853   2.491   0.324  1.00  0.00    -0.645 OA
HETATM    2  C1  UNL     1      -4.479   1.302   0.498  1.00  0.00     0.198 C 
HETATM    3  O2  UNL     1      -5.363   0.385   1.058  1.00  0.00    -0.645 OA
HETATM    4  C2  UNL     1      -3.117   0.904   0.111  1.00  0.00    -0.009 C 
HETATM    5  C3  UNL     1      -2.678  -0.354   0.254  1.00  0.00    -0.067 C 
HETATM    6  C4  UNL     1      -1.318  -0.801  -0.135  1.00  0.00    -0.035 A 
HETATM    7  C5  UNL     1      -1.102  -2.169  -0.369  1.00  0.00    -0.073 A 
HETATM    8  C6  UNL     1       0.166  -2.638  -0.720  1.00  0.00    -0.082 A 
HETATM    9  C7  UNL     1       1.236  -1.749  -0.836  1.00  0.00    -0.075 A 
HETATM   10  C8  UNL     1       1.044  -0.379  -0.607  1.00  0.00    -0.034 A 
HETATM   11  C9  UNL     1       2.207   0.569  -0.678  1.00  0.00     0.043 C 
HETATM   12  O3  UNL     1       2.799   0.660   0.600  1.00  0.00    -0.391 OA
HETATM   13  C10 UNL     1       3.890   1.551   0.548  1.00  0.00     0.004 C 
HETATM   14  C11 UNL     1      -0.228   0.089  -0.237  1.00  0.00    -0.065 A 
HETATM   15  H1  UNL     1      -2.483   1.664  -0.324  1.00  0.00     0.094 H 
HETATM   16  H2  UNL     1      -3.359  -1.107   0.634  1.00  0.00     0.085 H 
HETATM   17  H3  UNL     1      -1.918  -2.876  -0.284  1.00  0.00     0.084 H 
HETATM   18  H4  UNL     1       0.320  -3.694  -0.898  1.00  0.00     0.083 H 
HETATM   19  H5  UNL     1       2.215  -2.130  -1.098  1.00  0.00     0.084 H 
HETATM   20  H6  UNL     1       2.940   0.193  -1.429  1.00  0.00     0.081 H 
HETATM   21  H7  UNL     1       1.843   1.566  -1.019  1.00  0.00     0.081 H 
HETATM   22  H8  UNL     1       3.560   2.576   0.267  1.00  0.00     0.066 H 
HETATM   23  H9  UNL     1       4.345   1.612   1.558  1.00  0.00     0.066 H 
HETATM   24  H10 UNL     1       4.674   1.188  -0.153  1.00  0.00     0.066 H 
HETATM   25  H11 UNL     1      -0.349   1.139  -0.009  1.00  0.00     0.085 H 
TER      26      UNL     1 
ENDMDL
