REMARK FAKE_HEAD_ATOM=C9_O1
REMARK REAL_HEAD_ATOM=C8_C7
REMARK DUMMY_ATOM=C9_H9_H10_H11_O1
REMARK TORSION=C4_C3_C2_C11
REMARK TORSION=C3_C2_C11_C12
MODEL 0
HETATM    1  C1  UNL     1      -3.005  -0.799   0.796  1.00  0.00    -0.065 C 
HETATM    2  C2  UNL     1      -1.846   0.056   0.220  1.00  0.00    -0.021 C 
HETATM    3  C3  UNL     1      -0.493  -0.692   0.274  1.00  0.00    -0.050 A 
HETATM    4  C4  UNL     1      -0.401  -2.084   0.519  1.00  0.00    -0.076 A 
HETATM    5  C5  UNL     1       0.838  -2.729   0.540  1.00  0.00    -0.082 A 
HETATM    6  C6  UNL     1       2.008  -2.015   0.294  1.00  0.00    -0.075 A 
HETATM    7  C7  UNL     1       1.949  -0.648  -0.001  1.00  0.00    -0.034 A 
HETATM    8  C8  UNL     1       3.211   0.127  -0.249  1.00  0.00     0.043 C 
HETATM    9  O1  UNL     1       3.662   0.667   0.975  1.00  0.00    -0.391 OA
HETATM   10  C9  UNL     1       4.842   1.406   0.754  1.00  0.00     0.004 C 
HETATM   11  C10 UNL     1       0.707   0.005  -0.003  1.00  0.00    -0.068 A 
HETATM   12  C11 UNL     1      -2.133   0.405  -1.273  1.00  0.00    -0.058 C 
HETATM   13  C12 UNL     1      -3.444   1.156  -1.532  1.00  0.00    -0.076 C 
HETATM   14  C13 UNL     1      -1.753   1.344   1.079  1.00  0.00    -0.065 C 
HETATM   15  H1  UNL     1      -3.938  -0.206   0.898  1.00  0.00     0.028 H 
HETATM   16  H2  UNL     1      -2.748  -1.172   1.811  1.00  0.00     0.028 H 
HETATM   17  H3  UNL     1      -3.233  -1.662   0.133  1.00  0.00     0.028 H 
HETATM   18  H4  UNL     1      -1.274  -2.692   0.700  1.00  0.00     0.084 H 
HETATM   19  H5  UNL     1       0.889  -3.790   0.746  1.00  0.00     0.083 H 
HETATM   20  H6  UNL     1       2.960  -2.531   0.322  1.00  0.00     0.084 H 
HETATM   21  H7  UNL     1       3.001   0.936  -0.986  1.00  0.00     0.081 H 
HETATM   22  H8  UNL     1       3.979  -0.551  -0.690  1.00  0.00     0.081 H 
HETATM   23  H9  UNL     1       5.186   1.821   1.723  1.00  0.00     0.066 H 
HETATM   24  H10 UNL     1       5.656   0.758   0.359  1.00  0.00     0.066 H 
HETATM   25  H11 UNL     1       4.659   2.263   0.067  1.00  0.00     0.066 H 
HETATM   26  H12 UNL     1       0.683   1.061  -0.234  1.00  0.00     0.085 H 
HETATM   27  H13 UNL     1      -1.306   1.028  -1.678  1.00  0.00     0.034 H 
HETATM   28  H14 UNL     1      -2.150  -0.533  -1.870  1.00  0.00     0.034 H 
HETATM   29  H15 UNL     1      -3.520   1.392  -2.614  1.00  0.00     0.027 H 
HETATM   30  H16 UNL     1      -4.322   0.534  -1.262  1.00  0.00     0.027 H 
HETATM   31  H17 UNL     1      -3.475   2.114  -0.973  1.00  0.00     0.027 H 
HETATM   32  H18 UNL     1      -1.118   2.116   0.598  1.00  0.00     0.028 H 
HETATM   33  H19 UNL     1      -1.330   1.110   2.080  1.00  0.00     0.028 H 
HETATM   34  H20 UNL     1      -2.753   1.800   1.238  1.00  0.00     0.028 H 
TER      35      UNL     1 
ENDMDL
