REMARK FAKE_HEAD_ATOM=C12_O1
REMARK REAL_HEAD_ATOM=C11_C6
REMARK DUMMY_ATOM=C12_H14_H15_H16_O1
REMARK TORSION=C6_C5_C4_C3
REMARK TORSION=C5_C4_C3_C2
REMARK TORSION=C4_C3_C2_C1
MODEL 0
HETATM    1  C1  UNL     1       3.512  -1.611  -0.717  1.00  0.00    -0.021 C 
HETATM    2  C2  UNL     1       3.270  -0.299  -0.030  1.00  0.00     0.123 C 
HETATM    3  C3  UNL     1       1.989   0.466  -0.232  1.00  0.00    -0.006 C 
HETATM    4  C4  UNL     1       1.155   0.473   1.054  1.00  0.00    -0.034 C 
HETATM    5  C5  UNL     1      -0.172   1.162   0.829  1.00  0.00    -0.049 A 
HETATM    6  C6  UNL     1      -1.336   0.465   0.397  1.00  0.00    -0.028 A 
HETATM    7  C7  UNL     1      -2.544   1.180   0.266  1.00  0.00    -0.074 A 
HETATM    8  C8  UNL     1      -2.589   2.558   0.483  1.00  0.00    -0.082 A 
HETATM    9  C9  UNL     1      -1.435   3.245   0.853  1.00  0.00    -0.082 A 
HETATM   10  C10 UNL     1      -0.236   2.554   1.026  1.00  0.00    -0.076 A 
HETATM   11  C11 UNL     1      -1.334  -1.034   0.174  1.00  0.00     0.043 C 
HETATM   12  O1  UNL     1      -2.330  -1.401  -0.760  1.00  0.00    -0.391 OA
HETATM   13  C12 UNL     1      -2.361  -2.804  -0.889  1.00  0.00     0.004 C 
HETATM   14  O2  UNL     1       4.135   0.158   0.702  1.00  0.00    -0.298 OA
HETATM   15  H1  UNL     1       2.639  -1.915  -1.331  1.00  0.00     0.037 H 
HETATM   16  H2  UNL     1       3.699  -2.397   0.043  1.00  0.00     0.037 H 
HETATM   17  H3  UNL     1       4.400  -1.526  -1.378  1.00  0.00     0.037 H 
HETATM   18  H4  UNL     1       1.400   0.019  -1.061  1.00  0.00     0.044 H 
HETATM   19  H5  UNL     1       2.235   1.510  -0.525  1.00  0.00     0.044 H 
HETATM   20  H6  UNL     1       1.721   1.003   1.853  1.00  0.00     0.040 H 
HETATM   21  H7  UNL     1       1.004  -0.563   1.427  1.00  0.00     0.040 H 
HETATM   22  H8  UNL     1      -3.462   0.674  -0.008  1.00  0.00     0.084 H 
HETATM   23  H9  UNL     1      -3.522   3.094   0.366  1.00  0.00     0.083 H 
HETATM   24  H10 UNL     1      -1.472   4.314   1.016  1.00  0.00     0.083 H 
HETATM   25  H11 UNL     1       0.647   3.106   1.325  1.00  0.00     0.084 H 
HETATM   26  H12 UNL     1      -1.515  -1.520   1.160  1.00  0.00     0.081 H 
HETATM   27  H13 UNL     1      -0.344  -1.356  -0.215  1.00  0.00     0.081 H 
HETATM   28  H14 UNL     1      -1.389  -3.197  -1.262  1.00  0.00     0.066 H 
HETATM   29  H15 UNL     1      -2.634  -3.291   0.073  1.00  0.00     0.066 H 
HETATM   30  H16 UNL     1      -3.139  -3.074  -1.633  1.00  0.00     0.066 H 
TER      31      UNL     1 
ENDMDL
