REMARK FAKE_HEAD_ATOM=C11_O1
REMARK REAL_HEAD_ATOM=C10_C5
REMARK DUMMY_ATOM=C11_H16_H17_H18_O1
REMARK TORSION=C5_C4_C3_C2
REMARK TORSION=C4_C3_C2_C1
MODEL 0
HETATM    1  C1  UNL     1      -1.848   0.853  -1.598  1.00  0.00    -0.050 C 
HETATM    2  C2  UNL     1      -1.989   1.104  -0.090  1.00  0.00     0.100 C 
HETATM    3  N1  UNL     1      -2.971   0.181   0.495  1.00  0.00    -0.075 N 
HETATM    4  C3  UNL     1      -0.630   1.054   0.655  1.00  0.00    -0.014 C 
HETATM    5  C4  UNL     1       0.042  -0.310   0.642  1.00  0.00    -0.048 A 
HETATM    6  C5  UNL     1       1.038  -0.688  -0.305  1.00  0.00    -0.028 A 
HETATM    7  C6  UNL     1       1.587  -1.982  -0.243  1.00  0.00    -0.074 A 
HETATM    8  C7  UNL     1       1.172  -2.890   0.731  1.00  0.00    -0.082 A 
HETATM    9  C8  UNL     1       0.212  -2.518   1.666  1.00  0.00    -0.082 A 
HETATM   10  C9  UNL     1      -0.344  -1.240   1.627  1.00  0.00    -0.076 A 
HETATM   11  C10 UNL     1       1.601   0.247  -1.356  1.00  0.00     0.043 C 
HETATM   12  O1  UNL     1       2.946   0.576  -1.064  1.00  0.00    -0.391 OA
HETATM   13  C11 UNL     1       2.998   1.655  -0.157  1.00  0.00     0.004 C 
HETATM   14  H1  UNL     1      -1.213   1.636  -2.060  1.00  0.00     0.030 H 
HETATM   15  H2  UNL     1      -2.845   0.900  -2.084  1.00  0.00     0.030 H 
HETATM   16  H3  UNL     1      -1.410  -0.148  -1.795  1.00  0.00     0.030 H 
HETATM   17  H4  UNL     1      -2.381   2.140   0.028  1.00  0.00     0.083 H 
HETATM   18  H5  UNL     1      -3.035   0.332   1.528  1.00  0.00     0.274 HD
HETATM   19  H6  UNL     1      -2.712  -0.812   0.299  1.00  0.00     0.274 HD
HETATM   20  H7  UNL     1      -3.914   0.367   0.083  1.00  0.00     0.274 HD
HETATM   21  H8  UNL     1      -0.806   1.353   1.712  1.00  0.00     0.043 H 
HETATM   22  H9  UNL     1       0.041   1.845   0.266  1.00  0.00     0.043 H 
HETATM   23  H10 UNL     1       2.350  -2.287  -0.949  1.00  0.00     0.084 H 
HETATM   24  H11 UNL     1       1.605  -3.882   0.765  1.00  0.00     0.083 H 
HETATM   25  H12 UNL     1      -0.102  -3.221   2.427  1.00  0.00     0.083 H 
HETATM   26  H13 UNL     1      -1.084  -0.975   2.371  1.00  0.00     0.084 H 
HETATM   27  H14 UNL     1       1.592  -0.292  -2.327  1.00  0.00     0.081 H 
HETATM   28  H15 UNL     1       0.981   1.144  -1.547  1.00  0.00     0.081 H 
HETATM   29  H16 UNL     1       2.541   2.571  -0.593  1.00  0.00     0.066 H 
HETATM   30  H17 UNL     1       2.511   1.396   0.809  1.00  0.00     0.066 H 
HETATM   31  H18 UNL     1       4.062   1.884   0.058  1.00  0.00     0.066 H 
TER      32      UNL     1 
ENDMDL
