REMARK FAKE_HEAD_ATOM=C8_O1
REMARK REAL_HEAD_ATOM=C7_C6
REMARK DUMMY_ATOM=C8_H10_H11_H12_O1
MODEL 0
HETATM    1  N1  UNL     1      -0.288   2.060   0.262  1.00  0.00    -0.049 N 
HETATM    2  C1  UNL     1      -0.953   0.791   0.121  1.00  0.00     0.138 A 
HETATM    3  C2  UNL     1      -2.332   0.691   0.387  1.00  0.00    -0.049 A 
HETATM    4  C3  UNL     1      -2.996  -0.529   0.253  1.00  0.00    -0.081 A 
HETATM    5  C4  UNL     1      -2.296  -1.665  -0.152  1.00  0.00    -0.082 A 
HETATM    6  C5  UNL     1      -0.931  -1.584  -0.433  1.00  0.00    -0.073 A 
HETATM    7  C6  UNL     1      -0.249  -0.359  -0.321  1.00  0.00    -0.001 A 
HETATM    8  C7  UNL     1       1.229  -0.315  -0.613  1.00  0.00     0.045 C 
HETATM    9  O1  UNL     1       1.938  -0.403   0.604  1.00  0.00    -0.391 OA
HETATM   10  C8  UNL     1       3.322  -0.309   0.349  1.00  0.00     0.004 C 
HETATM   11  H1  UNL     1      -0.900   2.756   0.747  1.00  0.00     0.281 HD
HETATM   12  H2  UNL     1       0.580   1.945   0.832  1.00  0.00     0.281 HD
HETATM   13  H3  UNL     1      -0.048   2.430  -0.685  1.00  0.00     0.281 HD
HETATM   14  H4  UNL     1      -2.894   1.561   0.705  1.00  0.00     0.086 H 
HETATM   15  H5  UNL     1      -4.055  -0.595   0.466  1.00  0.00     0.083 H 
HETATM   16  H6  UNL     1      -2.812  -2.612  -0.249  1.00  0.00     0.083 H 
HETATM   17  H7  UNL     1      -0.406  -2.479  -0.743  1.00  0.00     0.084 H 
HETATM   18  H8  UNL     1       1.469   0.628  -1.154  1.00  0.00     0.081 H 
HETATM   19  H9  UNL     1       1.502  -1.161  -1.285  1.00  0.00     0.081 H 
HETATM   20  H10 UNL     1       3.865  -0.396   1.312  1.00  0.00     0.066 H 
HETATM   21  H11 UNL     1       3.582   0.678  -0.096  1.00  0.00     0.066 H 
HETATM   22  H12 UNL     1       3.669  -1.136  -0.309  1.00  0.00     0.066 H 
TER      23      UNL     1 
ENDMDL
