REMARK FAKE_HEAD_ATOM=C8_O1
REMARK REAL_HEAD_ATOM=C7_C6
REMARK DUMMY_ATOM=C8_H9_H10_H11_O1
REMARK TORSION=C5_C4_C3_C2
REMARK TORSION=C4_C3_C2_C1
MODEL 0
HETATM    1  C1  UNL     1      -2.606  -0.780  -0.847  1.00  0.00    -0.047 C 
HETATM    2  C2  UNL     1      -2.856   0.302   0.221  1.00  0.00     0.125 C 
HETATM    3  C3  UNL     1      -1.640   1.249   0.456  1.00  0.00     0.087 C 
HETATM    4  C4  UNL     1      -0.381   0.496   0.849  1.00  0.00    -0.027 A 
HETATM    5  C5  UNL     1       0.597   0.135  -0.100  1.00  0.00    -0.066 A 
HETATM    6  C6  UNL     1       1.730  -0.600   0.284  1.00  0.00    -0.034 A 
HETATM    7  C7  UNL     1       2.786  -0.944  -0.727  1.00  0.00     0.043 C 
HETATM    8  O1  UNL     1       3.708   0.122  -0.805  1.00  0.00    -0.391 OA
HETATM    9  C8  UNL     1       4.701  -0.186  -1.756  1.00  0.00     0.004 C 
HETATM   10  C9  UNL     1       1.898  -0.957   1.630  1.00  0.00    -0.075 A 
HETATM   11  C10 UNL     1       0.928  -0.615   2.574  1.00  0.00    -0.082 A 
HETATM   12  C11 UNL     1      -0.208   0.099   2.186  1.00  0.00    -0.074 A 
HETATM   13  O2  UNL     1      -1.412   2.133  -0.617  1.00  0.00    -0.389 OA
HETATM   14  N1  UNL     1      -4.060   1.075  -0.112  1.00  0.00    -0.073 N 
HETATM   15  H1  UNL     1      -2.446  -0.335  -1.851  1.00  0.00     0.030 H 
HETATM   16  H2  UNL     1      -1.729  -1.405  -0.579  1.00  0.00     0.030 H 
HETATM   17  H3  UNL     1      -3.486  -1.453  -0.909  1.00  0.00     0.030 H 
HETATM   18  H4  UNL     1      -3.047  -0.233   1.179  1.00  0.00     0.087 H 
HETATM   19  H5  UNL     1      -1.910   1.894   1.322  1.00  0.00     0.093 H 
HETATM   20  H6  UNL     1       0.481   0.413  -1.139  1.00  0.00     0.085 H 
HETATM   21  H7  UNL     1       2.300  -1.121  -1.715  1.00  0.00     0.081 H 
HETATM   22  H8  UNL     1       3.296  -1.886  -0.419  1.00  0.00     0.081 H 
HETATM   23  H9  UNL     1       5.273  -1.095  -1.463  1.00  0.00     0.066 H 
HETATM   24  H10 UNL     1       5.418   0.659  -1.805  1.00  0.00     0.066 H 
HETATM   25  H11 UNL     1       4.262  -0.313  -2.771  1.00  0.00     0.066 H 
HETATM   26  H12 UNL     1       2.778  -1.503   1.947  1.00  0.00     0.084 H 
HETATM   27  H13 UNL     1       1.057  -0.905   3.608  1.00  0.00     0.083 H 
HETATM   28  H14 UNL     1      -0.953   0.345   2.932  1.00  0.00     0.084 H 
HETATM   29  H15 UNL     1      -1.408   1.615  -1.461  1.00  0.00     0.210 HD
HETATM   30  H16 UNL     1      -3.948   1.555  -1.034  1.00  0.00     0.274 HD
HETATM   31  H17 UNL     1      -4.889   0.438  -0.159  1.00  0.00     0.274 HD
HETATM   32  H18 UNL     1      -4.242   1.790   0.629  1.00  0.00     0.274 HD
TER      33      UNL     1 
ENDMDL
