REMARK FAKE_HEAD_ATOM=C1_O1
REMARK REAL_HEAD_ATOM=C2_C3
REMARK DUMMY_ATOM=C1_H1_H2_H3_O1
REMARK TORSION=C5_C6_C7_C8
REMARK TORSION=C6_C7_C8_C9
MODEL 0
HETATM    1  C1  UNL     1       5.385   0.032   0.009  1.00  0.00     0.004 C 
HETATM    2  O1  UNL     1       4.054   0.274   0.405  1.00  0.00    -0.391 OA
HETATM    3  C2  UNL     1       3.174  -0.361  -0.497  1.00  0.00     0.043 C 
HETATM    4  C3  UNL     1       1.761  -0.095  -0.064  1.00  0.00    -0.035 A 
HETATM    5  C4  UNL     1       1.128  -0.952   0.850  1.00  0.00    -0.074 A 
HETATM    6  C5  UNL     1      -0.175  -0.685   1.281  1.00  0.00    -0.076 A 
HETATM    7  C6  UNL     1      -0.860   0.448   0.813  1.00  0.00    -0.056 A 
HETATM    8  C7  UNL     1      -2.272   0.729   1.270  1.00  0.00    -0.015 C 
HETATM    9  C8  UNL     1      -3.356   0.081   0.375  1.00  0.00     0.100 C 
HETATM   10  C9  UNL     1      -3.341   0.641  -1.055  1.00  0.00    -0.050 C 
HETATM   11  N1  UNL     1      -3.246  -1.384   0.360  1.00  0.00    -0.075 N 
HETATM   12  C10 UNL     1      -0.218   1.315  -0.085  1.00  0.00    -0.076 A 
HETATM   13  C11 UNL     1       1.085   1.049  -0.516  1.00  0.00    -0.074 A 
HETATM   14  H1  UNL     1       6.065   0.536   0.726  1.00  0.00     0.066 H 
HETATM   15  H2  UNL     1       5.589   0.455  -1.000  1.00  0.00     0.066 H 
HETATM   16  H3  UNL     1       5.621  -1.055   0.031  1.00  0.00     0.066 H 
HETATM   17  H4  UNL     1       3.317   0.029  -1.531  1.00  0.00     0.081 H 
HETATM   18  H5  UNL     1       3.349  -1.461  -0.514  1.00  0.00     0.081 H 
HETATM   19  H6  UNL     1       1.642  -1.826   1.228  1.00  0.00     0.084 H 
HETATM   20  H7  UNL     1      -0.649  -1.362   1.981  1.00  0.00     0.084 H 
HETATM   21  H8  UNL     1      -2.439   1.828   1.306  1.00  0.00     0.043 H 
HETATM   22  H9  UNL     1      -2.402   0.368   2.314  1.00  0.00     0.043 H 
HETATM   23  H10 UNL     1      -4.342   0.349   0.820  1.00  0.00     0.083 H 
HETATM   24  H11 UNL     1      -3.403   1.750  -1.035  1.00  0.00     0.030 H 
HETATM   25  H12 UNL     1      -2.417   0.338  -1.590  1.00  0.00     0.030 H 
HETATM   26  H13 UNL     1      -4.215   0.254  -1.620  1.00  0.00     0.030 H 
HETATM   27  H14 UNL     1      -3.227  -1.753   1.338  1.00  0.00     0.274 HD
HETATM   28  H15 UNL     1      -2.381  -1.688  -0.143  1.00  0.00     0.274 HD
HETATM   29  H16 UNL     1      -4.077  -1.793  -0.126  1.00  0.00     0.274 HD
HETATM   30  H17 UNL     1      -0.726   2.199  -0.450  1.00  0.00     0.084 H 
HETATM   31  H18 UNL     1       1.566   1.734  -1.202  1.00  0.00     0.084 H 
TER      32      UNL     1 
ENDMDL
