REMARK FAKE_HEAD_ATOM=C8_O1
REMARK REAL_HEAD_ATOM=C7_C6
REMARK DUMMY_ATOM=C8_H13_H14_H15_O1
REMARK TORSION=C5_C4_C3_C2
REMARK TORSION=C4_C3_C2_C1
MODEL 0
HETATM    1  C1  UNL     1      -2.166   1.187   1.090  1.00  0.00    -0.050 C 
HETATM    2  C2  UNL     1      -2.786   0.180   0.108  1.00  0.00     0.100 C 
HETATM    3  N1  UNL     1      -4.156  -0.149   0.522  1.00  0.00    -0.075 N 
HETATM    4  C3  UNL     1      -1.938  -1.107   0.006  1.00  0.00    -0.015 C 
HETATM    5  C4  UNL     1      -0.584  -0.849  -0.607  1.00  0.00    -0.056 A 
HETATM    6  C5  UNL     1       0.554  -0.724   0.207  1.00  0.00    -0.069 A 
HETATM    7  C6  UNL     1       1.812  -0.465  -0.361  1.00  0.00    -0.034 A 
HETATM    8  C7  UNL     1       3.017  -0.290   0.518  1.00  0.00     0.043 C 
HETATM    9  O1  UNL     1       3.099   1.063   0.913  1.00  0.00    -0.391 OA
HETATM   10  C8  UNL     1       4.223   1.239   1.745  1.00  0.00     0.004 C 
HETATM   11  C9  UNL     1       1.919  -0.300  -1.751  1.00  0.00    -0.075 A 
HETATM   12  C10 UNL     1       0.789  -0.419  -2.563  1.00  0.00    -0.082 A 
HETATM   13  C11 UNL     1      -0.458  -0.692  -1.996  1.00  0.00    -0.077 A 
HETATM   14  H1  UNL     1      -1.172   1.524   0.728  1.00  0.00     0.030 H 
HETATM   15  H2  UNL     1      -2.050   0.731   2.096  1.00  0.00     0.030 H 
HETATM   16  H3  UNL     1      -2.815   2.084   1.177  1.00  0.00     0.030 H 
HETATM   17  H4  UNL     1      -2.830   0.660  -0.897  1.00  0.00     0.083 H 
HETATM   18  H5  UNL     1      -4.736   0.721   0.560  1.00  0.00     0.274 HD
HETATM   19  H6  UNL     1      -4.154  -0.603   1.465  1.00  0.00     0.274 HD
HETATM   20  H7  UNL     1      -4.592  -0.799  -0.172  1.00  0.00     0.274 HD
HETATM   21  H8  UNL     1      -2.472  -1.852  -0.624  1.00  0.00     0.043 H 
HETATM   22  H9  UNL     1      -1.827  -1.566   1.014  1.00  0.00     0.043 H 
HETATM   23  H10 UNL     1       0.461  -0.821   1.283  1.00  0.00     0.085 H 
HETATM   24  H11 UNL     1       2.919  -0.957   1.405  1.00  0.00     0.081 H 
HETATM   25  H12 UNL     1       3.929  -0.594  -0.046  1.00  0.00     0.081 H 
HETATM   26  H13 UNL     1       4.276   2.306   2.046  1.00  0.00     0.066 H 
HETATM   27  H14 UNL     1       5.166   0.995   1.207  1.00  0.00     0.066 H 
HETATM   28  H15 UNL     1       4.136   0.633   2.674  1.00  0.00     0.066 H 
HETATM   29  H16 UNL     1       2.877  -0.075  -2.205  1.00  0.00     0.084 H 
HETATM   30  H17 UNL     1       0.878  -0.292  -3.635  1.00  0.00     0.083 H 
HETATM   31  H18 UNL     1      -1.327  -0.775  -2.637  1.00  0.00     0.084 H 
TER      32      UNL     1 
ENDMDL
