REMARK FAKE_HEAD_ATOM=C9_O1
REMARK REAL_HEAD_ATOM=C8_C7
REMARK DUMMY_ATOM=C9_H13_H14_H15_O1
REMARK TORSION=C5_C4_C3_C1
REMARK TORSION=C4_C3_C1_N1
MODEL 0
HETATM    1  N1  UNL     1      -4.285   0.673   0.405  1.00  0.00    -0.073 N 
HETATM    2  C1  UNL     1      -2.980   0.073   0.102  1.00  0.00     0.125 C 
HETATM    3  C2  UNL     1      -2.873  -0.239  -1.403  1.00  0.00    -0.047 C 
HETATM    4  C3  UNL     1      -1.823   0.966   0.644  1.00  0.00     0.087 C 
HETATM    5  C4  UNL     1      -0.452   0.360   0.396  1.00  0.00    -0.028 A 
HETATM    6  C5  UNL     1       0.023  -0.642   1.260  1.00  0.00    -0.074 A 
HETATM    7  C6  UNL     1       1.265  -1.241   1.041  1.00  0.00    -0.074 A 
HETATM    8  C7  UNL     1       2.051  -0.861  -0.055  1.00  0.00    -0.035 A 
HETATM    9  C8  UNL     1       3.398  -1.498  -0.275  1.00  0.00     0.043 C 
HETATM   10  O1  UNL     1       4.308  -1.093   0.731  1.00  0.00    -0.391 OA
HETATM   11  C9  UNL     1       4.946   0.108   0.356  1.00  0.00     0.004 C 
HETATM   12  C10 UNL     1       1.582   0.133  -0.926  1.00  0.00    -0.074 A 
HETATM   13  C11 UNL     1       0.339   0.734  -0.708  1.00  0.00    -0.074 A 
HETATM   14  O2  UNL     1      -1.898   2.300   0.194  1.00  0.00    -0.389 OA
HETATM   15  H1  UNL     1      -4.365   0.858   1.431  1.00  0.00     0.274 HD
HETATM   16  H2  UNL     1      -5.051   0.014   0.133  1.00  0.00     0.274 HD
HETATM   17  H3  UNL     1      -4.409   1.571  -0.117  1.00  0.00     0.274 HD
HETATM   18  H4  UNL     1      -2.919  -0.903   0.636  1.00  0.00     0.087 H 
HETATM   19  H5  UNL     1      -2.971   0.679  -2.019  1.00  0.00     0.030 H 
HETATM   20  H6  UNL     1      -1.909  -0.737  -1.636  1.00  0.00     0.030 H 
HETATM   21  H7  UNL     1      -3.686  -0.936  -1.698  1.00  0.00     0.030 H 
HETATM   22  H8  UNL     1      -1.956   1.015   1.747  1.00  0.00     0.093 H 
HETATM   23  H9  UNL     1      -0.573  -0.960   2.107  1.00  0.00     0.084 H 
HETATM   24  H10 UNL     1       1.615  -2.005   1.725  1.00  0.00     0.084 H 
HETATM   25  H11 UNL     1       3.277  -2.600  -0.204  1.00  0.00     0.081 H 
HETATM   26  H12 UNL     1       3.779  -1.309  -1.307  1.00  0.00     0.081 H 
HETATM   27  H13 UNL     1       5.588  -0.044  -0.540  1.00  0.00     0.066 H 
HETATM   28  H14 UNL     1       4.210   0.922   0.174  1.00  0.00     0.066 H 
HETATM   29  H15 UNL     1       5.604   0.432   1.188  1.00  0.00     0.066 H 
HETATM   30  H16 UNL     1       2.177   0.442  -1.777  1.00  0.00     0.084 H 
HETATM   31  H17 UNL     1       0.001   1.485  -1.409  1.00  0.00     0.084 H 
HETATM   32  H18 UNL     1      -2.022   2.298  -0.788  1.00  0.00     0.210 HD
TER      33      UNL     1 
ENDMDL
