REMARK FAKE_HEAD_ATOM=C11_O2
REMARK REAL_HEAD_ATOM=C10_C7
REMARK DUMMY_ATOM=C11_H15_H16_H17_O2
REMARK TORSION=C5_C4_C3_C2
REMARK TORSION=C4_C3_C2_N1
REMARK TORSION=C3_C2_N1_C1
MODEL 0
HETATM    1  C1  UNL     1      -4.815   0.978   0.424  1.00  0.00     0.093 C 
HETATM    2  N1  UNL     1      -4.212  -0.252   0.944  1.00  0.00     0.082 N 
HETATM    3  C2  UNL     1      -2.741  -0.223   0.883  1.00  0.00     0.138 C 
HETATM    4  C3  UNL     1      -2.187  -0.501  -0.537  1.00  0.00     0.086 C 
HETATM    5  O1  UNL     1      -2.599  -1.754  -1.027  1.00  0.00    -0.389 OA
HETATM    6  C4  UNL     1      -0.674  -0.394  -0.561  1.00  0.00    -0.028 A 
HETATM    7  C5  UNL     1       0.128  -1.318   0.134  1.00  0.00    -0.074 A 
HETATM    8  C6  UNL     1       1.521  -1.203   0.116  1.00  0.00    -0.074 A 
HETATM    9  C7  UNL     1       2.138  -0.169  -0.604  1.00  0.00    -0.035 A 
HETATM   10  C8  UNL     1       1.341   0.768  -1.278  1.00  0.00    -0.074 A 
HETATM   11  C9  UNL     1      -0.052   0.654  -1.260  1.00  0.00    -0.074 A 
HETATM   12  C10 UNL     1       3.632  -0.023  -0.590  1.00  0.00     0.043 C 
HETATM   13  O2  UNL     1       4.001   0.785   0.507  1.00  0.00    -0.391 OA
HETATM   14  C11 UNL     1       5.403   0.930   0.531  1.00  0.00     0.004 C 
HETATM   15  H1  UNL     1      -4.398   1.870   0.941  1.00  0.00     0.071 H 
HETATM   16  H2  UNL     1      -4.661   1.069  -0.671  1.00  0.00     0.071 H 
HETATM   17  H3  UNL     1      -5.908   0.955   0.616  1.00  0.00     0.071 H 
HETATM   18  H4  UNL     1      -4.582  -1.066   0.400  1.00  0.00     0.315 HD
HETATM   19  H5  UNL     1      -2.355  -0.992   1.586  1.00  0.00     0.084 H 
HETATM   20  H6  UNL     1      -2.357   0.755   1.252  1.00  0.00     0.084 H 
HETATM   21  H7  UNL     1      -2.604   0.266  -1.222  1.00  0.00     0.093 H 
HETATM   22  H8  UNL     1      -2.402  -2.438  -0.336  1.00  0.00     0.210 HD
HETATM   23  H9  UNL     1      -0.321  -2.124   0.700  1.00  0.00     0.084 H 
HETATM   24  H10 UNL     1       2.119  -1.920   0.666  1.00  0.00     0.084 H 
HETATM   25  H11 UNL     1       1.799   1.589  -1.817  1.00  0.00     0.084 H 
HETATM   26  H12 UNL     1      -0.644   1.390  -1.791  1.00  0.00     0.084 H 
HETATM   27  H13 UNL     1       3.963   0.436  -1.550  1.00  0.00     0.081 H 
HETATM   28  H14 UNL     1       4.096  -1.033  -0.511  1.00  0.00     0.081 H 
HETATM   29  H15 UNL     1       5.907  -0.053   0.664  1.00  0.00     0.066 H 
HETATM   30  H16 UNL     1       5.772   1.436  -0.389  1.00  0.00     0.066 H 
HETATM   31  H17 UNL     1       5.677   1.567   1.397  1.00  0.00     0.066 H 
TER      32      UNL     1 
ENDMDL
