REMARK FAKE_HEAD_ATOM=C7_O2
REMARK REAL_HEAD_ATOM=C6_C5
REMARK DUMMY_ATOM=C7_H11_H12_H13_O2
REMARK TORSION=C5_C4_C1_C2
REMARK TORSION=C4_C1_C2_N1
REMARK TORSION=C1_C2_N1_C3
MODEL 0
HETATM    1  O1  UNL     1       0.715   0.481  -1.974  1.00  0.00    -0.389 OA
HETATM    2  C1  UNL     1       1.083  -0.489  -1.028  1.00  0.00     0.086 C 
HETATM    3  C2  UNL     1       1.912   0.139   0.104  1.00  0.00     0.138 C 
HETATM    4  N1  UNL     1       3.130   0.755  -0.438  1.00  0.00     0.082 N 
HETATM    5  C3  UNL     1       4.001   1.202   0.650  1.00  0.00     0.093 C 
HETATM    6  C4  UNL     1      -0.134  -1.217  -0.467  1.00  0.00    -0.020 A 
HETATM    7  C5  UNL     1      -1.361  -0.573  -0.116  1.00  0.00    -0.026 A 
HETATM    8  C6  UNL     1      -1.600   0.912  -0.311  1.00  0.00     0.043 C 
HETATM    9  O2  UNL     1      -2.484   1.402   0.679  1.00  0.00    -0.391 OA
HETATM   10  C7  UNL     1      -2.778   2.756   0.420  1.00  0.00     0.004 C 
HETATM   11  C8  UNL     1      -2.436  -1.364   0.339  1.00  0.00    -0.074 A 
HETATM   12  C9  UNL     1      -2.290  -2.738   0.523  1.00  0.00    -0.082 A 
HETATM   13  C10 UNL     1      -1.077  -3.355   0.238  1.00  0.00    -0.082 A 
HETATM   14  C11 UNL     1      -0.010  -2.604  -0.252  1.00  0.00    -0.074 A 
HETATM   15  H1  UNL     1       0.362  -0.009  -2.763  1.00  0.00     0.210 HD
HETATM   16  H2  UNL     1       1.749  -1.225  -1.539  1.00  0.00     0.093 H 
HETATM   17  H3  UNL     1       1.316   0.896   0.658  1.00  0.00     0.084 H 
HETATM   18  H4  UNL     1       2.188  -0.669   0.819  1.00  0.00     0.084 H 
HETATM   19  H5  UNL     1       2.853   1.606  -0.982  1.00  0.00     0.315 HD
HETATM   20  H6  UNL     1       4.341   0.333   1.254  1.00  0.00     0.071 H 
HETATM   21  H7  UNL     1       4.900   1.694   0.223  1.00  0.00     0.071 H 
HETATM   22  H8  UNL     1       3.476   1.932   1.305  1.00  0.00     0.071 H 
HETATM   23  H9  UNL     1      -2.029   1.049  -1.330  1.00  0.00     0.081 H 
HETATM   24  H10 UNL     1      -0.649   1.475  -0.241  1.00  0.00     0.081 H 
HETATM   25  H11 UNL     1      -3.458   3.127   1.214  1.00  0.00     0.066 H 
HETATM   26  H12 UNL     1      -1.859   3.382   0.446  1.00  0.00     0.066 H 
HETATM   27  H13 UNL     1      -3.303   2.875  -0.554  1.00  0.00     0.066 H 
HETATM   28  H14 UNL     1      -3.398  -0.918   0.558  1.00  0.00     0.084 H 
HETATM   29  H15 UNL     1      -3.123  -3.327   0.887  1.00  0.00     0.083 H 
HETATM   30  H16 UNL     1      -0.965  -4.421   0.388  1.00  0.00     0.083 H 
HETATM   31  H17 UNL     1       0.920  -3.114  -0.474  1.00  0.00     0.084 H 
TER      32      UNL     1 
ENDMDL
