REMARK FAKE_HEAD_ATOM=C8_O2
REMARK REAL_HEAD_ATOM=C7_C6
REMARK DUMMY_ATOM=C8_H8_H9_H10_O2
MODEL 0
HETATM    1  O1  UNL     1      -0.554   2.059  -0.254  1.00  0.00    -0.360 OA
HETATM    2  C1  UNL     1      -0.905   0.735   0.006  1.00  0.00     0.074 A 
HETATM    3  C2  UNL     1      -2.148   0.245  -0.424  1.00  0.00    -0.050 A 
HETATM    4  C3  UNL     1      -2.507  -1.082  -0.177  1.00  0.00    -0.080 A 
HETATM    5  C4  UNL     1      -1.628  -1.929   0.500  1.00  0.00    -0.082 A 
HETATM    6  C5  UNL     1      -0.388  -1.451   0.933  1.00  0.00    -0.072 A 
HETATM    7  C6  UNL     1      -0.018  -0.116   0.698  1.00  0.00    -0.002 A 
HETATM    8  C7  UNL     1       1.335   0.366   1.159  1.00  0.00     0.045 C 
HETATM    9  O2  UNL     1       2.362  -0.219   0.380  1.00  0.00    -0.391 OA
HETATM   10  C8  UNL     1       2.604   0.559  -0.772  1.00  0.00     0.004 C 
HETATM   11  H1  UNL     1      -1.175   2.687  -0.751  1.00  0.00     0.217 HD
HETATM   12  H2  UNL     1      -2.835   0.893  -0.953  1.00  0.00     0.087 H 
HETATM   13  H3  UNL     1      -3.466  -1.454  -0.512  1.00  0.00     0.083 H 
HETATM   14  H4  UNL     1      -1.906  -2.958   0.687  1.00  0.00     0.083 H 
HETATM   15  H5  UNL     1       0.286  -2.122   1.452  1.00  0.00     0.084 H 
HETATM   16  H6  UNL     1       1.479   0.038   2.210  1.00  0.00     0.081 H 
HETATM   17  H7  UNL     1       1.398   1.478   1.194  1.00  0.00     0.081 H 
HETATM   18  H8  UNL     1       3.383   0.055  -1.380  1.00  0.00     0.066 H 
HETATM   19  H9  UNL     1       1.692   0.646  -1.402  1.00  0.00     0.066 H 
HETATM   20  H10 UNL     1       2.989   1.566  -0.501  1.00  0.00     0.066 H 
TER      21      UNL     1 
ENDMDL
