REMARK FAKE_HEAD_ATOM=C1_O1
REMARK REAL_HEAD_ATOM=C2_C3
REMARK DUMMY_ATOM=C1_H1_H2_H3_O1
REMARK TORSION=C6_C7_C8_C9
REMARK TORSION=C7_C8_C9_N1
REMARK TORSION=C8_C9_N1_C10
MODEL 0
HETATM    1  C1  UNL     1       4.148   0.906  -1.605  1.00  0.00     0.004 C 
HETATM    2  O1  UNL     1       3.441  -0.312  -1.701  1.00  0.00    -0.391 OA
HETATM    3  C2  UNL     1       3.359  -0.932  -0.432  1.00  0.00     0.043 C 
HETATM    4  C3  UNL     1       2.155  -0.433   0.323  1.00  0.00    -0.034 A 
HETATM    5  C4  UNL     1       2.311   0.387   1.450  1.00  0.00    -0.075 A 
HETATM    6  C5  UNL     1       1.191   0.863   2.133  1.00  0.00    -0.082 A 
HETATM    7  C6  UNL     1      -0.093   0.529   1.696  1.00  0.00    -0.074 A 
HETATM    8  C7  UNL     1      -0.271  -0.286   0.563  1.00  0.00    -0.027 A 
HETATM    9  C8  UNL     1      -1.661  -0.650   0.077  1.00  0.00     0.086 C 
HETATM   10  C9  UNL     1      -2.465   0.615  -0.323  1.00  0.00     0.138 C 
HETATM   11  N1  UNL     1      -3.646   0.314  -1.150  1.00  0.00     0.082 N 
HETATM   12  C10 UNL     1      -4.754  -0.245  -0.372  1.00  0.00     0.093 C 
HETATM   13  O2  UNL     1      -2.329  -1.412   1.052  1.00  0.00    -0.389 OA
HETATM   14  C11 UNL     1       0.864  -0.762  -0.119  1.00  0.00    -0.066 A 
HETATM   15  H1  UNL     1       4.143   1.397  -2.599  1.00  0.00     0.066 H 
HETATM   16  H2  UNL     1       5.210   0.729  -1.323  1.00  0.00     0.066 H 
HETATM   17  H3  UNL     1       3.665   1.602  -0.884  1.00  0.00     0.066 H 
HETATM   18  H4  UNL     1       4.295  -0.821   0.166  1.00  0.00     0.081 H 
HETATM   19  H5  UNL     1       3.240  -2.024  -0.592  1.00  0.00     0.081 H 
HETATM   20  H6  UNL     1       3.300   0.661   1.799  1.00  0.00     0.084 H 
HETATM   21  H7  UNL     1       1.317   1.494   3.003  1.00  0.00     0.083 H 
HETATM   22  H8  UNL     1      -0.947   0.913   2.240  1.00  0.00     0.084 H 
HETATM   23  H9  UNL     1      -1.566  -1.289  -0.828  1.00  0.00     0.093 H 
HETATM   24  H10 UNL     1      -2.757   1.202   0.575  1.00  0.00     0.084 H 
HETATM   25  H11 UNL     1      -1.802   1.276  -0.922  1.00  0.00     0.084 H 
HETATM   26  H12 UNL     1      -3.391  -0.357  -1.912  1.00  0.00     0.315 HD
HETATM   27  H13 UNL     1      -5.676  -0.221  -0.989  1.00  0.00     0.071 H 
HETATM   28  H14 UNL     1      -4.554  -1.303  -0.100  1.00  0.00     0.071 H 
HETATM   29  H15 UNL     1      -4.943   0.356   0.544  1.00  0.00     0.071 H 
HETATM   30  H16 UNL     1      -2.543  -0.817   1.816  1.00  0.00     0.210 HD
HETATM   31  H17 UNL     1       0.747  -1.387  -0.997  1.00  0.00     0.085 H 
TER      32      UNL     1 
ENDMDL
