REMARK FAKE_HEAD_ATOM=C1_O1
REMARK REAL_HEAD_ATOM=C2_C3
REMARK DUMMY_ATOM=C1_H1_H2_H3_O1
REMARK TORSION=C5_C6_O2_C7
REMARK TORSION=C6_O2_C7_C8
REMARK TORSION=O2_C7_C8_C9
REMARK TORSION=C7_C8_C9_O4
MODEL 0
HETATM    1  C1  UNL     1      -5.866   0.450  -1.326  1.00  0.00     0.004 C 
HETATM    2  O1  UNL     1      -4.493   0.626  -1.058  1.00  0.00    -0.391 OA
HETATM    3  C2  UNL     1      -4.015  -0.477  -0.318  1.00  0.00     0.043 C 
HETATM    4  C3  UNL     1      -2.553  -0.277  -0.040  1.00  0.00    -0.035 A 
HETATM    5  C4  UNL     1      -2.138   0.419   1.105  1.00  0.00    -0.072 A 
HETATM    6  C5  UNL     1      -0.778   0.637   1.345  1.00  0.00    -0.050 A 
HETATM    7  C6  UNL     1       0.186   0.176   0.441  1.00  0.00     0.068 A 
HETATM    8  O2  UNL     1       1.537   0.419   0.728  1.00  0.00    -0.349 OA
HETATM    9  C7  UNL     1       2.624   0.008  -0.099  1.00  0.00     0.052 C 
HETATM   10  C8  UNL     1       3.949   0.447   0.537  1.00  0.00     0.076 C 
HETATM   11  O3  UNL     1       4.078  -0.086   1.832  1.00  0.00    -0.391 OA
HETATM   12  C9  UNL     1       5.146   0.047  -0.341  1.00  0.00     0.042 C 
HETATM   13  O4  UNL     1       6.341   0.533   0.209  1.00  0.00    -0.398 OA
HETATM   14  C10 UNL     1      -0.230  -0.507  -0.718  1.00  0.00    -0.050 A 
HETATM   15  C11 UNL     1      -1.590  -0.725  -0.957  1.00  0.00    -0.072 A 
HETATM   16  H1  UNL     1      -6.458   0.405  -0.385  1.00  0.00     0.066 H 
HETATM   17  H2  UNL     1      -6.227   1.323  -1.907  1.00  0.00     0.066 H 
HETATM   18  H3  UNL     1      -6.043  -0.460  -1.941  1.00  0.00     0.066 H 
HETATM   19  H4  UNL     1      -4.560  -0.571   0.649  1.00  0.00     0.081 H 
HETATM   20  H5  UNL     1      -4.152  -1.425  -0.887  1.00  0.00     0.081 H 
HETATM   21  H6  UNL     1      -2.868   0.793   1.813  1.00  0.00     0.084 H 
HETATM   22  H7  UNL     1      -0.472   1.170   2.236  1.00  0.00     0.087 H 
HETATM   23  H8  UNL     1       2.522   0.478  -1.101  1.00  0.00     0.079 H 
HETATM   24  H9  UNL     1       2.609  -1.099  -0.211  1.00  0.00     0.079 H 
HETATM   25  H10 UNL     1       3.938   1.556   0.621  1.00  0.00     0.089 H 
HETATM   26  H11 UNL     1       4.089  -1.076   1.749  1.00  0.00     0.210 HD
HETATM   27  H12 UNL     1       5.193  -1.060  -0.462  1.00  0.00     0.078 H 
HETATM   28  H13 UNL     1       5.025   0.490  -1.353  1.00  0.00     0.078 H 
HETATM   29  H14 UNL     1       6.607  -0.103   0.923  1.00  0.00     0.209 HD
HETATM   30  H15 UNL     1       0.488  -0.870  -1.440  1.00  0.00     0.087 H 
HETATM   31  H16 UNL     1      -1.892  -1.244  -1.859  1.00  0.00     0.084 H 
TER      32      UNL     1 
ENDMDL
