REMARK FAKE_HEAD_ATOM=C9_O3
REMARK REAL_HEAD_ATOM=C8_C7
REMARK DUMMY_ATOM=C9_H10_H11_H12_O3
REMARK TORSION=C4_C3_O2_C2
REMARK TORSION=C3_O2_C2_C1
REMARK TORSION=O2_C2_C1_C11
REMARK TORSION=C2_C1_C11_O4
MODEL 0
HETATM    1  O1  UNL     1       3.079  -1.762  -0.296  1.00  0.00    -0.391 OA
HETATM    2  C1  UNL     1       2.629  -0.535   0.216  1.00  0.00     0.076 C 
HETATM    3  C2  UNL     1       2.537   0.481  -0.934  1.00  0.00     0.052 C 
HETATM    4  O2  UNL     1       1.623   0.031  -1.935  1.00  0.00    -0.349 OA
HETATM    5  C3  UNL     1       0.223   0.048  -1.830  1.00  0.00     0.069 A 
HETATM    6  C4  UNL     1      -0.522  -0.547  -2.855  1.00  0.00    -0.051 A 
HETATM    7  C5  UNL     1      -1.918  -0.566  -2.800  1.00  0.00    -0.080 A 
HETATM    8  C6  UNL     1      -2.585   0.015  -1.720  1.00  0.00    -0.075 A 
HETATM    9  C7  UNL     1      -1.858   0.627  -0.688  1.00  0.00    -0.032 A 
HETATM   10  C8  UNL     1      -2.569   1.240   0.490  1.00  0.00     0.043 C 
HETATM   11  O3  UNL     1      -2.306   0.503   1.668  1.00  0.00    -0.391 OA
HETATM   12  C9  UNL     1      -3.227  -0.559   1.794  1.00  0.00     0.004 C 
HETATM   13  C10 UNL     1      -0.455   0.640  -0.744  1.00  0.00    -0.043 A 
HETATM   14  C11 UNL     1       3.595  -0.046   1.308  1.00  0.00     0.042 C 
HETATM   15  O4  UNL     1       3.133   1.144   1.889  1.00  0.00    -0.398 OA
HETATM   16  H1  UNL     1       2.848  -2.456   0.375  1.00  0.00     0.210 HD
HETATM   17  H2  UNL     1       1.618  -0.666   0.666  1.00  0.00     0.089 H 
HETATM   18  H3  UNL     1       2.244   1.488  -0.569  1.00  0.00     0.079 H 
HETATM   19  H4  UNL     1       3.539   0.584  -1.403  1.00  0.00     0.079 H 
HETATM   20  H5  UNL     1      -0.015  -1.002  -3.696  1.00  0.00     0.087 H 
HETATM   21  H6  UNL     1      -2.483  -1.034  -3.595  1.00  0.00     0.083 H 
HETATM   22  H7  UNL     1      -3.667  -0.014  -1.688  1.00  0.00     0.084 H 
HETATM   23  H8  UNL     1      -2.175   2.268   0.634  1.00  0.00     0.081 H 
HETATM   24  H9  UNL     1      -3.660   1.366   0.292  1.00  0.00     0.081 H 
HETATM   25  H10 UNL     1      -3.188  -1.240   0.915  1.00  0.00     0.066 H 
HETATM   26  H11 UNL     1      -2.958  -1.155   2.690  1.00  0.00     0.066 H 
HETATM   27  H12 UNL     1      -4.260  -0.175   1.943  1.00  0.00     0.066 H 
HETATM   28  H13 UNL     1       0.093   1.113   0.059  1.00  0.00     0.088 H 
HETATM   29  H14 UNL     1       4.599   0.136   0.868  1.00  0.00     0.078 H 
HETATM   30  H15 UNL     1       3.710  -0.830   2.090  1.00  0.00     0.078 H 
HETATM   31  H16 UNL     1       2.369   0.897   2.473  1.00  0.00     0.209 HD
TER      32      UNL     1 
ENDMDL
