REMARK FAKE_HEAD_ATOM=C8_O2
REMARK REAL_HEAD_ATOM=C7_C4
REMARK DUMMY_ATOM=C8_H8_H9_H10_O2
MODEL 0
HETATM    1  O1  UNL     1      -4.142  -0.082  -0.168  1.00  0.00    -0.361 OA
HETATM    2  C1  UNL     1      -2.751  -0.156  -0.131  1.00  0.00     0.065 A 
HETATM    3  C2  UNL     1      -2.017   0.036  -1.305  1.00  0.00    -0.050 A 
HETATM    4  C3  UNL     1      -0.621  -0.036  -1.283  1.00  0.00    -0.072 A 
HETATM    5  C4  UNL     1       0.054  -0.315  -0.083  1.00  0.00    -0.035 A 
HETATM    6  C5  UNL     1      -0.685  -0.491   1.098  1.00  0.00    -0.072 A 
HETATM    7  C6  UNL     1      -2.081  -0.418   1.072  1.00  0.00    -0.050 A 
HETATM    8  C7  UNL     1       1.555  -0.353  -0.050  1.00  0.00     0.043 C 
HETATM    9  O2  UNL     1       2.038   0.947   0.212  1.00  0.00    -0.391 OA
HETATM   10  C8  UNL     1       3.448   0.924   0.245  1.00  0.00     0.004 C 
HETATM   11  H1  UNL     1      -4.702  -0.216   0.666  1.00  0.00     0.217 HD
HETATM   12  H2  UNL     1      -2.529   0.246  -2.236  1.00  0.00     0.087 H 
HETATM   13  H3  UNL     1      -0.067   0.126  -2.199  1.00  0.00     0.084 H 
HETATM   14  H4  UNL     1      -0.181  -0.684   2.037  1.00  0.00     0.084 H 
HETATM   15  H5  UNL     1      -2.641  -0.562   1.988  1.00  0.00     0.087 H 
HETATM   16  H6  UNL     1       1.932  -0.726  -1.030  1.00  0.00     0.081 H 
HETATM   17  H7  UNL     1       1.884  -1.065   0.742  1.00  0.00     0.081 H 
HETATM   18  H8  UNL     1       3.821   0.265   1.061  1.00  0.00     0.066 H 
HETATM   19  H9  UNL     1       3.870   0.609  -0.735  1.00  0.00     0.066 H 
HETATM   20  H10 UNL     1       3.813   1.951   0.452  1.00  0.00     0.066 H 
TER      21      UNL     1 
ENDMDL
