REMARK FAKE_HEAD_ATOM=C10_O3
REMARK REAL_HEAD_ATOM=C9_C8
REMARK DUMMY_ATOM=C10_H12_H13_H14_O3
REMARK TORSION=C5_C4_C3_C2
REMARK TORSION=C4_C3_C2_C1
REMARK TORSION=C3_C2_C1_O1
MODEL 0
HETATM    1  O1  UNL     1      -2.131   1.491   2.073  1.00  0.00    -0.646 OA
HETATM    2  C1  UNL     1      -2.848   0.843   1.265  1.00  0.00     0.204 C 
HETATM    3  O2  UNL     1      -3.962   1.451   0.699  1.00  0.00    -0.646 OA
HETATM    4  C2  UNL     1      -2.486  -0.574   0.900  1.00  0.00     0.186 C 
HETATM    5  N1  UNL     1      -3.615  -1.469   1.181  1.00  0.00    -0.065 N 
HETATM    6  C3  UNL     1      -2.075  -0.673  -0.584  1.00  0.00    -0.005 C 
HETATM    7  C4  UNL     1      -0.816   0.107  -0.868  1.00  0.00    -0.055 A 
HETATM    8  C5  UNL     1      -0.889   1.404  -1.403  1.00  0.00    -0.077 A 
HETATM    9  C6  UNL     1       0.278   2.139  -1.627  1.00  0.00    -0.082 A 
HETATM   10  C7  UNL     1       1.525   1.589  -1.320  1.00  0.00    -0.075 A 
HETATM   11  C8  UNL     1       1.615   0.291  -0.793  1.00  0.00    -0.034 A 
HETATM   12  C9  UNL     1       2.950  -0.283  -0.418  1.00  0.00     0.043 C 
HETATM   13  O3  UNL     1       3.227   0.048   0.926  1.00  0.00    -0.391 OA
HETATM   14  C10 UNL     1       4.477  -0.490   1.293  1.00  0.00     0.004 C 
HETATM   15  C11 UNL     1       0.439  -0.439  -0.553  1.00  0.00    -0.069 A 
HETATM   16  H1  UNL     1      -1.623  -0.897   1.527  1.00  0.00     0.101 H 
HETATM   17  H2  UNL     1      -4.437  -1.229   0.580  1.00  0.00     0.275 HD
HETATM   18  H3  UNL     1      -3.335  -2.460   0.996  1.00  0.00     0.275 HD
HETATM   19  H4  UNL     1      -3.889  -1.390   2.187  1.00  0.00     0.275 HD
HETATM   20  H5  UNL     1      -2.906  -0.317  -1.233  1.00  0.00     0.044 H 
HETATM   21  H6  UNL     1      -1.901  -1.739  -0.847  1.00  0.00     0.044 H 
HETATM   22  H7  UNL     1      -1.848   1.848  -1.638  1.00  0.00     0.084 H 
HETATM   23  H8  UNL     1       0.215   3.140  -2.034  1.00  0.00     0.083 H 
HETATM   24  H9  UNL     1       2.419   2.176  -1.489  1.00  0.00     0.084 H 
HETATM   25  H10 UNL     1       2.923  -1.389  -0.557  1.00  0.00     0.081 H 
HETATM   26  H11 UNL     1       3.731   0.132  -1.097  1.00  0.00     0.081 H 
HETATM   27  H12 UNL     1       5.297  -0.064   0.673  1.00  0.00     0.066 H 
HETATM   28  H13 UNL     1       4.682  -0.221   2.349  1.00  0.00     0.066 H 
HETATM   29  H14 UNL     1       4.474  -1.601   1.223  1.00  0.00     0.066 H 
HETATM   30  H15 UNL     1       0.499  -1.430  -0.117  1.00  0.00     0.085 H 
TER      31      UNL     1 
ENDMDL
