REMARK FAKE_HEAD_ATOM=C1_O1
REMARK REAL_HEAD_ATOM=C2_C3
REMARK DUMMY_ATOM=C1_H1_H2_H3_O1
REMARK TORSION=C5_C6_C7_C8
REMARK TORSION=C6_C7_C8_C9
REMARK TORSION=C7_C8_C9_O2
MODEL 0
HETATM    1  C1  UNL     1      -4.037   1.339   0.613  1.00  0.00     0.004 C 
HETATM    2  O1  UNL     1      -3.874   0.030   1.115  1.00  0.00    -0.391 OA
HETATM    3  C2  UNL     1      -3.497  -0.850   0.073  1.00  0.00     0.043 C 
HETATM    4  C3  UNL     1      -2.001  -0.860  -0.095  1.00  0.00    -0.035 A 
HETATM    5  C4  UNL     1      -1.186  -1.420   0.901  1.00  0.00    -0.074 A 
HETATM    6  C5  UNL     1       0.204  -1.412   0.762  1.00  0.00    -0.076 A 
HETATM    7  C6  UNL     1       0.800  -0.844  -0.375  1.00  0.00    -0.056 A 
HETATM    8  C7  UNL     1       2.301  -0.811  -0.508  1.00  0.00    -0.005 C 
HETATM    9  C8  UNL     1       2.929   0.323   0.330  1.00  0.00     0.186 C 
HETATM   10  C9  UNL     1       4.429   0.200   0.303  1.00  0.00     0.204 C 
HETATM   11  O2  UNL     1       5.130   0.425  -0.876  1.00  0.00    -0.646 OA
HETATM   12  O3  UNL     1       5.056  -0.127   1.345  1.00  0.00    -0.646 OA
HETATM   13  N1  UNL     1       2.522   1.645  -0.165  1.00  0.00    -0.065 N 
HETATM   14  C10 UNL     1      -0.015  -0.273  -1.365  1.00  0.00    -0.076 A 
HETATM   15  C11 UNL     1      -1.406  -0.281  -1.226  1.00  0.00    -0.074 A 
HETATM   16  H1  UNL     1      -4.887   1.388  -0.103  1.00  0.00     0.066 H 
HETATM   17  H2  UNL     1      -4.272   2.015   1.460  1.00  0.00     0.066 H 
HETATM   18  H3  UNL     1      -3.104   1.712   0.135  1.00  0.00     0.066 H 
HETATM   19  H4  UNL     1      -3.822  -1.874   0.357  1.00  0.00     0.081 H 
HETATM   20  H5  UNL     1      -4.017  -0.631  -0.890  1.00  0.00     0.081 H 
HETATM   21  H6  UNL     1      -1.629  -1.859   1.787  1.00  0.00     0.084 H 
HETATM   22  H7  UNL     1       0.818  -1.844   1.543  1.00  0.00     0.084 H 
HETATM   23  H8  UNL     1       2.708  -1.790  -0.168  1.00  0.00     0.044 H 
HETATM   24  H9  UNL     1       2.591  -0.699  -1.576  1.00  0.00     0.044 H 
HETATM   25  H10 UNL     1       2.588   0.217   1.385  1.00  0.00     0.101 H 
HETATM   26  H11 UNL     1       2.742   1.744  -1.183  1.00  0.00     0.275 HD
HETATM   27  H12 UNL     1       3.023   2.393   0.368  1.00  0.00     0.275 HD
HETATM   28  H13 UNL     1       1.496   1.782  -0.019  1.00  0.00     0.275 HD
HETATM   29  H14 UNL     1       0.426   0.186  -2.242  1.00  0.00     0.084 H 
HETATM   30  H15 UNL     1      -2.018   0.170  -1.998  1.00  0.00     0.084 H 
TER      31      UNL     1 
ENDMDL
