REMARK FAKE_HEAD_ATOM=C11_O3
REMARK REAL_HEAD_ATOM=C10_C9
REMARK DUMMY_ATOM=C11_H13_H14_H15_O3
REMARK TORSION=C5_C4_C3_C2
REMARK TORSION=C4_C3_C2_C1
REMARK TORSION=C3_C2_C1_O1
MODEL 0
HETATM    1  O1  UNL     1      -2.081  -0.257  -2.006  1.00  0.00    -0.646 OA
HETATM    2  C1  UNL     1      -2.015  -0.987  -0.982  1.00  0.00     0.204 C 
HETATM    3  O2  UNL     1      -1.749  -2.344  -1.125  1.00  0.00    -0.646 OA
HETATM    4  C2  UNL     1      -2.173  -0.379   0.388  1.00  0.00     0.186 C 
HETATM    5  N1  UNL     1      -2.963  -1.266   1.251  1.00  0.00    -0.065 N 
HETATM    6  C3  UNL     1      -0.797  -0.090   1.028  1.00  0.00    -0.004 C 
HETATM    7  C4  UNL     1      -0.032   0.984   0.277  1.00  0.00    -0.047 A 
HETATM    8  C5  UNL     1      -0.460   2.318   0.415  1.00  0.00    -0.076 A 
HETATM    9  C6  UNL     1       0.197   3.351  -0.253  1.00  0.00    -0.082 A 
HETATM   10  C7  UNL     1       1.294   3.072  -1.065  1.00  0.00    -0.082 A 
HETATM   11  C8  UNL     1       1.737   1.758  -1.214  1.00  0.00    -0.074 A 
HETATM   12  C9  UNL     1       1.081   0.698  -0.562  1.00  0.00    -0.028 A 
HETATM   13  C10 UNL     1       1.624  -0.699  -0.731  1.00  0.00     0.043 C 
HETATM   14  O3  UNL     1       2.326  -1.064   0.439  1.00  0.00    -0.391 OA
HETATM   15  C11 UNL     1       2.745  -2.406   0.336  1.00  0.00     0.004 C 
HETATM   16  H1  UNL     1      -2.728   0.581   0.284  1.00  0.00     0.101 H 
HETATM   17  H2  UNL     1      -3.147  -0.795   2.167  1.00  0.00     0.275 HD
HETATM   18  H3  UNL     1      -3.884  -1.474   0.801  1.00  0.00     0.275 HD
HETATM   19  H4  UNL     1      -2.454  -2.164   1.427  1.00  0.00     0.275 HD
HETATM   20  H5  UNL     1      -0.218  -1.031   1.122  1.00  0.00     0.044 H 
HETATM   21  H6  UNL     1      -0.955   0.266   2.070  1.00  0.00     0.044 H 
HETATM   22  H7  UNL     1      -1.307   2.558   1.046  1.00  0.00     0.084 H 
HETATM   23  H8  UNL     1      -0.143   4.372  -0.137  1.00  0.00     0.083 H 
HETATM   24  H9  UNL     1       1.806   3.877  -1.577  1.00  0.00     0.083 H 
HETATM   25  H10 UNL     1       2.599   1.568  -1.843  1.00  0.00     0.084 H 
HETATM   26  H11 UNL     1       2.304  -0.740  -1.613  1.00  0.00     0.081 H 
HETATM   27  H12 UNL     1       0.783  -1.395  -0.937  1.00  0.00     0.081 H 
HETATM   28  H13 UNL     1       3.416  -2.554  -0.539  1.00  0.00     0.066 H 
HETATM   29  H14 UNL     1       3.320  -2.667   1.248  1.00  0.00     0.066 H 
HETATM   30  H15 UNL     1       1.873  -3.094   0.280  1.00  0.00     0.066 H 
TER      31      UNL     1 
ENDMDL
