REMARK FAKE_HEAD_ATOM=C1_O1
REMARK REAL_HEAD_ATOM=C2_C3
REMARK DUMMY_ATOM=C1_H1_H2_H3_O1
REMARK TORSION=C7_C8_O2_C9
REMARK TORSION=C8_O2_C9_C10
REMARK TORSION=O2_C9_C10_C11
REMARK TORSION=C9_C10_C11_O3
MODEL 0
HETATM    1  C1  UNL     1      -3.674   1.842   0.623  1.00  0.00     0.004 C 
HETATM    2  O1  UNL     1      -2.343   1.981   0.175  1.00  0.00    -0.391 OA
HETATM    3  C2  UNL     1      -2.111   1.139  -0.938  1.00  0.00     0.045 C 
HETATM    4  C3  UNL     1      -1.701  -0.241  -0.484  1.00  0.00    -0.001 A 
HETATM    5  C4  UNL     1      -2.567  -1.328  -0.691  1.00  0.00    -0.072 A 
HETATM    6  C5  UNL     1      -2.209  -2.607  -0.264  1.00  0.00    -0.082 A 
HETATM    7  C6  UNL     1      -0.988  -2.813   0.377  1.00  0.00    -0.080 A 
HETATM    8  C7  UNL     1      -0.120  -1.741   0.596  1.00  0.00    -0.050 A 
HETATM    9  C8  UNL     1      -0.465  -0.443   0.167  1.00  0.00     0.077 A 
HETATM   10  O2  UNL     1       0.372   0.669   0.376  1.00  0.00    -0.348 OA
HETATM   11  C9  UNL     1       1.710   0.640   0.876  1.00  0.00     0.052 C 
HETATM   12  C10 UNL     1       2.710   0.329  -0.250  1.00  0.00     0.076 C 
HETATM   13  C11 UNL     1       4.158   0.389   0.266  1.00  0.00     0.042 C 
HETATM   14  O3  UNL     1       4.480   1.680   0.710  1.00  0.00    -0.398 OA
HETATM   15  O4  UNL     1       2.455  -0.950  -0.769  1.00  0.00    -0.391 OA
HETATM   16  H1  UNL     1      -3.903   0.790   0.902  1.00  0.00     0.066 H 
HETATM   17  H2  UNL     1      -3.808   2.466   1.530  1.00  0.00     0.066 H 
HETATM   18  H3  UNL     1      -4.392   2.206  -0.145  1.00  0.00     0.066 H 
HETATM   19  H4  UNL     1      -1.278   1.573  -1.530  1.00  0.00     0.081 H 
HETATM   20  H5  UNL     1      -2.979   1.102  -1.639  1.00  0.00     0.081 H 
HETATM   21  H6  UNL     1      -3.522  -1.185  -1.181  1.00  0.00     0.084 H 
HETATM   22  H7  UNL     1      -2.880  -3.440  -0.429  1.00  0.00     0.083 H 
HETATM   23  H8  UNL     1      -0.714  -3.807   0.708  1.00  0.00     0.083 H 
HETATM   24  H9  UNL     1       0.813  -1.941   1.101  1.00  0.00     0.087 H 
HETATM   25  H10 UNL     1       1.933   1.651   1.278  1.00  0.00     0.079 H 
HETATM   26  H11 UNL     1       1.811  -0.067   1.726  1.00  0.00     0.079 H 
HETATM   27  H12 UNL     1       2.577   1.093  -1.051  1.00  0.00     0.089 H 
HETATM   28  H13 UNL     1       4.861   0.081  -0.542  1.00  0.00     0.078 H 
HETATM   29  H14 UNL     1       4.286  -0.323   1.109  1.00  0.00     0.078 H 
HETATM   30  H15 UNL     1       4.604   2.237  -0.103  1.00  0.00     0.209 HD
HETATM   31  H16 UNL     1       2.879  -0.987  -1.666  1.00  0.00     0.210 HD
TER      32      UNL     1 
ENDMDL
